 argument  1 = at_ccpv5zpp_gatchina_hf.nw
                                         
                                         


              Northwest Computational Chemistry Package (NWChem) 6.8
              ------------------------------------------------------


                    Environmental Molecular Sciences Laboratory
                       Pacific Northwest National Laboratory
                                Richland, WA 99352

                              Copyright (c) 1994-2018
                       Pacific Northwest National Laboratory
                            Battelle Memorial Institute

             NWChem is an open-source computational chemistry package
                        distributed under the terms of the
                      Educational Community License (ECL) 2.0
             A copy of the license is included with this distribution
                              in the LICENSE.TXT file

                                  ACKNOWLEDGMENT
                                  --------------

            This software and its documentation were developed at the
            EMSL at Pacific Northwest National Laboratory, a multiprogram
            national laboratory, operated for the U.S. Department of Energy
            by Battelle under Contract Number DE-AC05-76RL01830. Support
            for this work was provided by the Department of Energy Office
            of Biological and Environmental Research, Office of Basic
            Energy Sciences, and the Office of Advanced Scientific Computing.


           Job information
           ---------------

    hostname        = r03n25.localdomain.hpc.udel.edu
    program         = nwchem
    date            = Mon Jul  6 12:40:05 2020

    compiled        = Mon_Jun_22_16:48:09_2020
    source          = /opt/shared/nwchem/6.8.1/src
    nwchem branch   = Development
    nwchem revision = N/A
    ga revision     = 5.6.5
    use scalapack   = F
    input           = at_ccpv5zpp_gatchina_hf.nw
    prefix          = at_ccpv5zpp_gatchina_hf.
    data base       = /work/akanane/users/akanane/Relativistic/basis/ref_data/at_ccpv5zpp_gatchina_hf.db
    status          = startup
    nproc           =        1
    time left       =     -1s



           Memory information
           ------------------

    heap     = 1048575998 doubles =   8000.0 Mbytes
    stack    = 1048575995 doubles =   8000.0 Mbytes
    global   = 2097152000 doubles =  16000.0 Mbytes (distinct from heap & stack)
    total    = 4194303993 doubles =  32000.0 Mbytes
    verify   = yes
    hardfail = no 


           Directory information
           ---------------------

  0 permanent = /work/akanane/users/akanane/Relativistic/basis/ref_data
  0 scratch   = /lustre/scratch/akanane/nwchem




                                NWChem Input Module
                                -------------------


                                        At
                                        --

 Scaling coordinates for geometry "geometry" by  1.889725989
 (inverse scale =  0.529177249)



                             Geometry "geometry" -> ""
                             -------------------------

 Output coordinates in angstroms (scale by  1.889725989 to convert to a.u.)

  No.       Tag          Charge          X              Y              Z
 ---- ---------------- ---------- -------------- -------------- --------------
    1 At                  85.0000     0.00000000     0.00000000     0.00000000

      Atomic Mass 
      ----------- 

      At               210.987500


 Effective nuclear repulsion energy (a.u.)       0.0000000000

            Nuclear Dipole moment (a.u.) 
            ----------------------------
        X                 Y               Z
 ---------------- ---------------- ----------------
     0.0000000000     0.0000000000     0.0000000000


            XYZ format geometry
            -------------------
     1
 geometry
 At                    0.00000000     0.00000000     0.00000000

  library name resolved from: environment
  library file name is: </opt/shared/nwchem/6.8.1/data/libraries/>
  
                      Basis "ao basis" -> "" (spherical)
                      -----
  At (Astatine)
  -------------
            Exponent  Coefficients 
       -------------- ---------------------------------------------------------
  1 S  2.65334000E+04  1.000000

  2 S  3.95786000E+03  1.000000

  3 S  8.92460000E+02  1.000000

  4 S  2.45339000E+02  1.000000

  5 S  3.92694000E+01  1.000000

  6 S  2.44820000E+01  1.000000

  7 S  1.52914000E+01  1.000000

  8 S  9.54511000E+00  1.000000

  9 S  5.75152000E+00  1.000000

 10 S  3.51589000E+00  1.000000

 11 S  1.93801000E+00  1.000000

 12 S  1.07512000E+00  1.000000

 13 S  5.12582000E-01  1.000000

 14 S  2.79990000E-01  1.000000

 15 S  1.42420000E-01  1.000000

 16 S  6.82950000E-02  1.000000

 17 P  3.28975000E+02  1.000000

 18 P  6.93728000E+01  1.000000

 19 P  2.16799000E+01  1.000000

 20 P  1.35451000E+01  1.000000

 21 P  8.46372000E+00  1.000000

 22 P  5.28763000E+00  1.000000

 23 P  2.72722000E+00  1.000000

 24 P  1.53663000E+00  1.000000

 25 P  8.42333000E-01  1.000000

 26 P  4.22043000E-01  1.000000

 27 P  2.09057000E-01  1.000000

 28 P  1.00615000E-01  1.000000

 29 P  4.69200000E-02  1.000000

 30 D  1.80133000E+02  1.000000

 31 D  5.34782000E+01  1.000000

 32 D  1.54735000E+01  1.000000

 33 D  7.14900000E+00  1.000000

 34 D  4.46047000E+00  1.000000

 35 D  2.75881000E+00  1.000000

 36 D  1.72211000E+00  1.000000

 37 D  1.07074000E+00  1.000000

 38 D  6.40318000E-01  1.000000

 39 D  3.66291000E-01  1.000000

 40 D  2.05139000E-01  1.000000

 41 D  1.01700000E-01  1.000000

 42 F  6.33100000E-01  1.000000

 43 F  3.43900000E-01  1.000000

 44 F  1.86800000E-01  1.000000



 Summary of "ao basis" -> "" (spherical)
 ------------------------------------------------------------------------------
       Tag                 Description            Shells   Functions and Types
 ---------------- ------------------------------  ------  ---------------------
 At                      user specified             44      136   16s13p12d3f


  library name resolved from: environment
  library file name is: </opt/shared/nwchem/6.8.1/data/libraries/>
  
                 ECP       "ecp basis" -> "" (cartesian)
                -----
  At (Astatine) Replaces    60 electrons
  --------------------------------------
             Channel    R-exponent     Exponent     Coefficients
         ------------ ---------------------------------------------------------
  1 U L       Both         0.00      525.754846      -0.173059
  1 U L       Both         1.00     2395.715850      -2.276906
  1 U L       Both         1.00      278.392187      -3.857969
  1 U L       Both         1.00       61.458962     -36.770662
  1 U L       Both         1.00       44.129376      37.601009
  1 U L       Both         1.00       31.359815     -23.238699
  1 U L       Both         1.00       11.620573     -16.176532
  1 U L       Both         1.00        4.446625      -3.261971
  1 U L       Both         1.00        2.935632       0.180132
  1 U L       Both         1.00        1.910251      -0.146253
  1 U L       Both         1.00        0.178868      -0.000306
  1 U L       Both         1.00        0.018768      -0.000022
  1 U L       Both         1.00        0.009761      -0.000001

  2 U-s       Both         0.00       78.594234      10.173059
  2 U-s       Both         1.00       20.707609      53.132769
  2 U-s       Both         2.00       45.167107     915.704248
  2 U-s       Both         2.00       30.243749   -1411.543382
  2 U-s       Both         2.00       20.306371    1849.067583
  2 U-s       Both         2.00       13.560689   -1518.357864
  2 U-s       Both         2.00        8.557058    1106.328043
  2 U-s       Both         2.00        5.419636    -461.892244
  2 U-s       Both         2.00        3.516909     198.105995
  2 U-s       Both         2.00        2.287714     -81.896353
  2 U-s       Both         2.00        1.492833      32.227905
  2 U-s       Both         2.00        0.974359     -11.458592
  2 U-s       Both         2.00        0.633560       3.370887
  2 U-s       Both         2.00        0.410317      -0.726005
  2 U-s       Both         2.00        0.263860       0.084087

  3 U-p       Both         0.00       77.044856       9.173059
  3 U-p       Both         1.00      208.029432     -11.921411
  3 U-p       Both         1.00       28.036479      67.690912
  3 U-p       Both         2.00       39.868030     362.644345
  3 U-p       Both         2.00       26.002305    -582.208229
  3 U-p       Both         2.00       15.965542    1135.430155
  3 U-p       Both         2.00       11.089072   -1255.187511
  3 U-p       Both         2.00        8.084023     873.528658
  3 U-p       Both         2.00        5.150690    -147.543640
  3 U-p       Both         2.00        2.818771      20.737280
  3 U-p       Both         2.00        1.590819      -4.949674
  3 U-p       Both         2.00        0.878982       1.224799
  3 U-p       Both         2.00        0.479414      -0.318322
  3 U-p       Both         2.00        0.264399       0.075196
  3 U-p       Both         2.00        0.157424      -0.011770

  4 U-d       Both         0.00       30.117728       7.173059
  4 U-d       Both         1.00        9.540744     223.203571
  4 U-d       Both         1.00        5.932081    -532.676982
  4 U-d       Both         1.00        3.279986     364.117347
  4 U-d       Both         2.00        6.384402     470.098427
  4 U-d       Both         2.00        3.591978    -476.290215
  4 U-d       Both         2.00        1.790367       1.447964
  4 U-d       Both         2.00        0.921766      -0.463077
  4 U-d       Both         2.00        0.485962       0.163733
  4 U-d       Both         2.00        0.266420      -0.069600
  4 U-d       Both         2.00        0.150370       0.031881
  4 U-d       Both         2.00        0.090090      -0.013071
  4 U-d       Both         2.00        0.051240       0.003831
  4 U-d       Both         2.00        0.029281      -0.000895
  4 U-d       Both         2.00        0.016722       0.000119

  5 U-f       Both         0.00        0.891112       4.173059
  5 U-f       Both         1.00       18.356496      62.551914
  5 U-f       Both         2.00    32873.554569    1035.415119
  5 U-f       Both         2.00     3063.446789     192.725071
  5 U-f       Both         2.00       31.894642    -183.984679
  5 U-f       Both         2.00        4.214026      69.570454
  5 U-f       Both         2.00        1.887936    -131.986631
  5 U-f       Both         2.00        1.332761     223.444177
  5 U-f       Both         2.00        0.873304    -167.865396
  5 U-f       Both         2.00        0.632167      71.630825
  5 U-f       Both         2.00        0.438045     -11.215886
  5 U-f       Both         2.00        0.261926       0.470906
  5 U-f       Both         2.00        0.174510       0.000847

  library name resolved from: environment
  library file name is: </opt/shared/nwchem/6.8.1/data/libraries/>
  

 **** WARNING Zero Coefficient **** on atom "              At"
 angular momentum value: 1  standard basis set name: "user specified"
 input line that generated warning:
   202: 0	7.704485637704510E+01		0.000000000000000E+00
  

 **** WARNING Zero Coefficient **** on atom "              At"
 angular momentum value: 2  standard basis set name: "user specified"
 input line that generated warning:
   218: 0	3.011772828438610E+01		0.000000000000000E+00
  

 **** WARNING Zero Coefficient **** on atom "              At"
 angular momentum value: 3  standard basis set name: "user specified"
 input line that generated warning:
   234: 0	8.911119625038520E-01		0.000000000000000E+00
  

 **** WARNING Zero Coefficient **** on atom "              At"
 angular momentum value: 4  standard basis set name: "user specified"
 input line that generated warning:
   248: 0	5.257548462769590E+02		0.000000000000000E+00
  
             SO Potential "so potential" -> ""
                      -----
  At (Astatine)
  -------------
          R-exponent    Exponent     Coefficients 
         ------------ ------------------------------------------------------------
  1 U-p      1.00      208.029432       2.561177
  1 U-p      1.00       28.036479      -1.650544
  1 U-p      2.00       39.868030      77.307362
  1 U-p      2.00       26.002305    -118.585980
  1 U-p      2.00       15.965542     138.579485
  1 U-p      2.00       11.089072     -52.715330
  1 U-p      2.00        8.084023     -58.916702
  1 U-p      2.00        5.150690      62.873440
  1 U-p      2.00        2.818771     -15.889430
  1 U-p      2.00        1.590819       4.843922
  1 U-p      2.00        0.878982      -1.405982
  1 U-p      2.00        0.479414       0.390801
  1 U-p      2.00        0.264399      -0.095951
  1 U-p      2.00        0.157424       0.015456

  2 U-d      1.00        9.540744       1.612834
  2 U-d      1.00        5.932081      -1.350383
  2 U-d      1.00        3.279986      -0.287663
  2 U-d      2.00        6.384402      -1.664264
  2 U-d      2.00        3.591978       4.036069
  2 U-d      2.00        1.790367      -0.890782
  2 U-d      2.00        0.921766       0.301059
  2 U-d      2.00        0.485962      -0.123316
  2 U-d      2.00        0.266420       0.057045
  2 U-d      2.00        0.150370      -0.027051
  2 U-d      2.00        0.090090       0.011366
  2 U-d      2.00        0.051240      -0.003367
  2 U-d      2.00        0.029281       0.000795
  2 U-d      2.00        0.016722      -0.000104

  3 U-f      1.00       18.356496      -0.000643
  3 U-f      2.00    32873.554569       0.834481
  3 U-f      2.00     3063.446789       0.273486
  3 U-f      2.00       31.894642       0.160633
  3 U-f      2.00        4.214026      -0.068824
  3 U-f      2.00        1.887936       0.022494
  3 U-f      2.00        1.332761      -0.174753
  3 U-f      2.00        0.873304       0.160803
  3 U-f      2.00        0.632167       0.036072
  3 U-f      2.00        0.438045      -0.065269
  3 U-f      2.00        0.261926       0.016437
  3 U-f      2.00        0.174510      -0.002626

  4 U-g      1.00     2395.715850      -1.527919
  4 U-g      1.00      278.392187      -3.033005
  4 U-g      1.00       61.458962       2.574144
  4 U-g      1.00       44.129376      -2.630667
  4 U-g      1.00       31.359815       1.110494
  4 U-g      1.00       11.620573      -0.051219
  4 U-g      1.00        4.446625       0.042132
  4 U-g      1.00        2.935632      -0.036158
  4 U-g      1.00        1.910251       0.008870
  4 U-g      1.00        0.178868       0.000099
  4 U-g      1.00        0.018768       0.000004
  4 U-g      1.00        0.009761      -0.000000

  xc_inp: hfexch multiplicative factor not found.

                                 NWChem DFT Module
                                 -----------------


                                        At




 Summary of "ao basis" -> "ao basis" (spherical)
 ------------------------------------------------------------------------------
       Tag                 Description            Shells   Functions and Types
 ---------------- ------------------------------  ------  ---------------------
 At                      user specified             44      136   16s13p12d3f


  Caching 1-el integrals 

            General Information
            -------------------
          SCF calculation type: DFT
          Wavefunction type:  spin polarized.
          No. of atoms     :     1
          No. of electrons :    25
           Alpha electrons :    13
            Beta electrons :    12
          Charge           :     0
          Spin multiplicity:     2
          Use of symmetry is: off; symmetry adaption is: off
          Maximum number of iterations: 100
          AO basis - number of functions:   136
                     number of shells:    44
          Convergence on energy requested:  1.00D-07
          Convergence on density requested:  1.00D-06
          Convergence on gradient requested:  1.50D-06

              XC Information
              --------------
                     Hartree-Fock (Exact) Exchange  1.000          

          Convergence Information
          -----------------------
          Convergence aids based upon iterative change in 
          total energy or number of iterations. 
          Levelshifting, if invoked, occurs when the 
          HOMO/LUMO gap drops below (HL_TOL):  1.00D-02
          DIIS, if invoked, will attempt to extrapolate 
          using up to (NFOCK): 10 stored Fock matrices.

                    Damping( 0%)  Levelshifting(0.5)       DIIS
                  --------------- ------------------- ---------------
          dE  on:    start            ASAP                start   
          dE off:    2 iters        100 iters           100 iters 


      Screening Tolerance Information
      -------------------------------
          Density screening/tol_rho:  1.00D-10
          AO Gaussian exp screening on grid/accAOfunc:  16
          CD Gaussian exp screening on grid/accCDfunc:  20
          XC Gaussian exp screening on grid/accXCfunc:  20
          Schwarz screening/accCoul:  1.00D-10

 Performing spin-orbit DFT (SO-DFT) calculations
 -----------------------------------------------


 Forcing the number of linearly dependent vectors to be  0

      Superposition of Atomic Density Guess
      -------------------------------------

 Sum of atomic energies:        -302.61501130

      Non-variational initial energy
      ------------------------------

 Total energy =    -261.471193
 1-e energy   =    -454.446802
 2-e energy   =     192.975609
 HOMO         =      -0.323776
 LUMO         =       0.121834

   Time prior to 1st pass:      1.2

 Integral file          = /lustre/scratch/akanane/nwchem/at_ccpv5zpp_gatchina_hf.aoints.0
 Record size in doubles =    65536    No. of integs per rec  =    43688
 Max. records in memory =     1345    Max. records in file   = ********
 No. of bits per label  =        8    No. of bits per value  =       64


 #quartets = 4.892D+05 #integrals = 4.808D+06 #direct =  0.0% #cached =100.0%


           Memory utilization after 1st SCF pass: 
           Heap Space remaining (MW):      960.41           960407598
          Stack Space remaining (MW):     1048.42          1048424308

   convergence    iter        energy       DeltaE   RMS-Dens  Diis-err    time
 ---------------- ----- ----------------- --------- --------- ---------  ------
 d= 0,ls=0.0,diis     1   -261.6081169233 -2.62D+02  8.36D-04  6.52D+00     3.0
                                                     8.29D-04  6.52D+00
 d= 0,ls=0.0,diis     2   -261.9260764122 -3.18D-01  3.38D-04  6.66D-02     3.6
                                                     3.42D-04  6.66D-02
 d= 0,ls=0.0,diis     3   -261.9424233740 -1.63D-02  1.65D-04  3.59D-03     4.2
                                                     2.84D-04  3.59D-03
 d= 0,ls=0.0,diis     4   -261.9483416563 -5.92D-03  1.39D-04  1.86D-03     4.9
                                                     2.61D-04  1.86D-03
 d= 0,ls=0.0,diis     5   -261.9519831685 -3.64D-03  3.05D-04  9.98D-04     5.5
                                                     5.50D-04  9.98D-04
 d= 0,ls=0.0,diis     6   -261.9557313110 -3.75D-03  1.55D-04  1.97D-04     6.2
                                                     1.90D-04  1.97D-04
 d= 0,ls=0.0,diis     7   -261.9562623949 -5.31D-04  7.81D-05  3.32D-05     6.8
                                                     8.17D-05  3.32D-05
 d= 0,ls=0.0,diis     8   -261.9563928541 -1.30D-04  4.05D-05  2.11D-05     7.4
                                                     3.53D-05  2.11D-05
 d= 0,ls=0.0,diis     9   -261.9564825078 -8.97D-05  6.76D-05  2.04D-05     8.1
                                                     5.82D-05  2.04D-05
 d= 0,ls=0.0,diis    10   -261.9566309368 -1.48D-04  5.63D-04  1.94D-05     8.8
                                                     4.52D-04  1.94D-05
 d= 0,ls=0.0,diis    11   -261.9575237411 -8.93D-04  2.31D-05  6.05D-05     9.4
                                                     1.94D-05  6.05D-05
 d= 0,ls=0.0,diis    12   -261.9575041685  1.96D-05  2.04D-05  5.00D-05    10.1
                                                     1.38D-05  5.00D-05
 d= 0,ls=0.0,diis    13   -261.9575317982 -2.76D-05  4.40D-04  3.90D-05    10.7
                                                     3.56D-04  3.90D-05
 d= 0,ls=0.0,diis    14   -261.9578196815 -2.88D-04  9.46D-05  6.54D-05    11.4
                                                     8.31D-05  6.54D-05
 d= 0,ls=0.0,diis    15   -261.9578532395 -3.36D-05  3.34D-05  4.43D-05    12.0
                                                     2.85D-05  4.43D-05
 d= 0,ls=0.0,diis    16   -261.9578756482 -2.24D-05  2.49D-05  1.39D-05    12.7
                                                     2.25D-05  1.39D-05
 d= 0,ls=0.0,diis    17   -261.9578860776 -1.04D-05  2.28D-05  1.92D-06    13.3
                                                     2.02D-05  1.92D-06
 d= 0,ls=0.0,diis    18   -261.9578895040 -3.43D-06  8.47D-06  4.10D-07    14.0
                                                     7.44D-06  4.10D-07
 d= 0,ls=0.0,diis    19   -261.9578911242 -1.62D-06  1.67D-05  2.43D-07    14.6
                                                     1.51D-05  2.43D-07
 d= 0,ls=0.0,diis    20   -261.9578951675 -4.04D-06  2.47D-05  5.13D-07    15.3
                                                     2.46D-05  5.13D-07
 d= 0,ls=0.0,diis    21   -261.9579017076 -6.54D-06  4.37D-05  1.87D-07    15.9
                                                     4.27D-05  1.87D-07
 d= 0,ls=0.0,diis    22   -261.9579082620 -6.55D-06  2.63D-06  1.05D-07    16.6
                                                     2.55D-06  1.05D-07
 d= 0,ls=0.0,diis    23   -261.9579083458 -8.37D-08  2.24D-05  2.63D-08    17.2
                                                     2.25D-05  2.63D-08
 d= 0,ls=0.0,diis    24   -261.9579093973 -1.05D-06  2.70D-06  5.90D-09    17.9
                                                     2.65D-06  5.90D-09
 d= 0,ls=0.0,diis    25   -261.9579094234 -2.62D-08  1.32D-06  4.60D-10    18.5
                                                     1.33D-06  4.60D-10
 d= 0,ls=0.0,diis    26   -261.9579094311 -7.64D-09  1.93D-06  2.36D-10    19.1
                                                     1.92D-06  2.36D-10
 d= 0,ls=0.0,diis    27   -261.9579094364 -5.37D-09  6.63D-07  2.61D-11    19.8
                                                     6.59D-07  2.61D-11


      Total SO-DFT energy =     -261.957909436851
      One electron energy =     -455.014824790826
           Coulomb energy =      211.337326946038
    Exchange-Corr. energy =      -18.280411592063
 Nuclear repulsion energy =        0.000000000000

 Numeric. integr. density =        0.000000000000

     Total iterative time =     19.2s



                       DFT Final Molecular Orbital Analysis
                       ------------------------------------

 Vector    1  Occ=1.000000D+00  E=-7.906348D+00
              MO Center= -9.0D-13,  1.0D-14, -4.4D-13, r^2= 1.3D-01
  Bfn.         Coefficient        Function           Bfn.         Coefficient        Function  
  ----     -------------------  ------------         ----     -------------------  ------------
     9    -1.388858   1.059727  1 At s                 10     0.704287  -0.537385  1 At s          
    12     0.494167  -0.377060  1 At s                 11     0.432415  -0.329941  1 At s          
     8     0.330899  -0.252482  1 At s                145     0.004392  -0.218500  1 At s          
     7     0.099425  -0.075863  1 At s                146    -0.002227   0.110801  1 At s          
     6    -0.062481   0.047674  1 At s                148    -0.001563   0.077744  1 At s          

 Vector    2  Occ=1.000000D+00  E=-7.906348D+00
              MO Center=  1.9D-15,  4.6D-16, -6.9D-15, r^2= 1.7D-04
  Bfn.         Coefficient        Function           Bfn.         Coefficient        Function  
  ----     -------------------  ------------         ----     -------------------  ------------
   145     1.583186   0.738559  1 At s                146    -0.802830  -0.374522  1 At s          
   148    -0.563311  -0.262786  1 At s                147    -0.492918  -0.229947  1 At s          
   144    -0.377198  -0.175963  1 At s                  9     0.050969   0.212517  1 At s          
   143    -0.113336  -0.052871  1 At s                 10    -0.025846  -0.107767  1 At s          
   142     0.071224   0.033226  1 At s                 12    -0.018135  -0.075616  1 At s          

 Vector    3  Occ=1.000000D+00  E=-5.941011D+00
              MO Center=  3.2D-13, -7.3D-14,  1.2D-13, r^2= 6.6D-02
  Bfn.         Coefficient        Function           Bfn.         Coefficient        Function  
  ----     -------------------  ------------         ----     -------------------  ------------
   173    -0.311164   0.031910  1 At pz                36    -0.032600  -0.310490  1 At py         
    35     0.310296  -0.031061  1 At px               176    -0.207900   0.021320  1 At pz         
    39    -0.021948  -0.207287  1 At py                38     0.207111  -0.020548  1 At px         
    37     0.126962   0.129879  1 At pz               172    -0.129937   0.126404  1 At py         
   171     0.126890   0.129178  1 At px               167     0.168136  -0.017242  1 At pz         

 Vector    4  Occ=1.000000D+00  E=-5.941011D+00
              MO Center= -4.7D-16,  1.0D-13,  4.6D-14, r^2= 2.6D-02
  Bfn.         Coefficient        Function           Bfn.         Coefficient        Function  
  ----     -------------------  ------------         ----     -------------------  ------------
    37    -0.111290   0.292329  1 At pz               172    -0.291498  -0.111783  1 At py         
   171    -0.110246   0.291709  1 At px                40    -0.074357   0.195315  1 At pz         
   175    -0.194560  -0.074805  1 At py               174    -0.073408   0.194752  1 At px         
   173     0.092630   0.156230  1 At pz                36    -0.155706   0.092829  1 At py         
    35    -0.091971  -0.155979  1 At px                31     0.060135  -0.157958  1 At pz         

 Vector    5  Occ=1.000000D+00  E=-4.806642D+00
              MO Center= -1.1D-13, -9.2D-14, -7.2D-14, r^2= 5.3D-02
  Bfn.         Coefficient        Function           Bfn.         Coefficient        Function  
  ----     -------------------  ------------         ----     -------------------  ------------
   173     0.371131   0.001115  1 At pz               176     0.334369   0.001004  1 At pz         
    36    -0.180120  -0.227891  1 At py               170    -0.275680  -0.000828  1 At pz         
    39    -0.162278  -0.205317  1 At py                35     0.143240   0.181235  1 At px         
   179     0.216780   0.000651  1 At pz                33     0.133795   0.169280  1 At py         
    38     0.129051   0.163282  1 At px                32    -0.106400  -0.134623  1 At px         

 Vector    6  Occ=1.000000D+00  E=-4.797780D+00
              MO Center= -9.0D-14, -4.0D-14, -1.3D-13, r^2= 5.6D-02
  Bfn.         Coefficient        Function           Bfn.         Coefficient        Function  
  ----     -------------------  ------------         ----     -------------------  ------------
    35    -0.204835  -0.219568  1 At px                38    -0.185759  -0.198825  1 At px         
    36     0.047284  -0.257452  1 At py                39     0.043087  -0.233322  1 At py         
    32     0.152639   0.162726  1 At px               171    -0.159159  -0.126532  1 At px         
    33    -0.035859   0.191385  1 At py               174    -0.144138  -0.114764  1 At px         
   172    -0.171257   0.045681  1 At py               173     0.051649  -0.169114  1 At pz         

 Vector    7  Occ=1.000000D+00  E=-4.797780D+00
              MO Center= -1.4D-13, -4.0D-14, -4.4D-14, r^2= 4.7D-02
  Bfn.         Coefficient        Function           Bfn.         Coefficient        Function  
  ----     -------------------  ------------         ----     -------------------  ------------
   171    -0.042809  -0.297212  1 At px               174    -0.038593  -0.269348  1 At px         
   172    -0.230287  -0.124438  1 At py               175    -0.208850  -0.112593  1 At py         
   168     0.031206   0.220917  1 At px                35    -0.001091   0.203324  1 At px         
   169     0.171635   0.091953  1 At py                38    -0.000852   0.184244  1 At px         
    36    -0.142895   0.104863  1 At py                37     0.164170   0.065693  1 At pz         

 Vector    8  Occ=1.000000D+00  E=-4.791371D+00
              MO Center= -1.8D-13, -2.1D-14, -2.1D-14, r^2= 5.4D-02
  Bfn.         Coefficient        Function           Bfn.         Coefficient        Function  
  ----     -------------------  ------------         ----     -------------------  ------------
    37    -0.230747  -0.285002  1 At pz                40    -0.211037  -0.260657  1 At pz         
   172    -0.286999   0.002508  1 At py                34     0.172895   0.213547  1 At pz         
   175    -0.262484   0.002294  1 At py               171     0.228239  -0.001998  1 At px         
    43    -0.138017  -0.170469  1 At pz               169     0.215044  -0.001879  1 At py         
   174     0.208743  -0.001827  1 At px               178    -0.171663   0.001500  1 At py         

 Vector    9  Occ=1.000000D+00  E=-1.915782D+00
              MO Center= -1.0D-13,  5.2D-14, -4.5D-14, r^2= 9.0D-02
  Bfn.         Coefficient        Function           Bfn.         Coefficient        Function  
  ----     -------------------  ------------         ----     -------------------  ------------
    93    -0.117540   0.135219  1 At d  0             228    -0.090700  -0.147860  1 At d -1       
    83    -0.107746   0.123952  1 At d  0             218    -0.083552  -0.135464  1 At d -1       
    88    -0.102230   0.117606  1 At d  0             223    -0.079055  -0.128570  1 At d -1       
   230     0.053439  -0.140876  1 At d  1             220     0.049501  -0.129234  1 At d  1       
   225     0.046691  -0.122566  1 At d  1              91    -0.049134   0.090830  1 At d -2       

 Vector   10  Occ=1.000000D+00  E=-1.914292D+00
              MO Center= -1.1D-13,  4.4D-14, -6.0D-14, r^2= 1.0D-01
  Bfn.         Coefficient        Function           Bfn.         Coefficient        Function  
  ----     -------------------  ------------         ----     -------------------  ------------
   229     0.015728   0.180240  1 At d  0              92    -0.160028   0.068878  1 At d -1       
   219     0.014405   0.165079  1 At d  0              82    -0.146685   0.062960  1 At d -1       
   224     0.013674   0.156708  1 At d  0              87    -0.139291   0.059721  1 At d -1       
    94    -0.042318   0.144350  1 At d  1              84    -0.038610   0.132365  1 At d  1       
    89    -0.036597   0.125710  1 At d  1             227    -0.012826   0.103282  1 At d -2       

 Vector   11  Occ=1.000000D+00  E=-1.908343D+00
              MO Center= -1.3D-13, -4.7D-14, -7.3D-14, r^2= 1.3D-01
  Bfn.         Coefficient        Function           Bfn.         Coefficient        Function  
  ----     -------------------  ------------         ----     -------------------  ------------
    95    -0.142894  -0.092643  1 At d  2              91    -0.090981   0.141889  1 At d -2       
    85    -0.131159  -0.084939  1 At d  2              81    -0.083728   0.130426  1 At d -2       
    90    -0.124512  -0.080683  1 At d  2              86    -0.079373   0.123719  1 At d -2       
   230    -0.132562   0.014698  1 At d  1             220    -0.121609   0.013597  1 At d  1       
   225    -0.115488   0.012772  1 At d  1             228     0.105727  -0.008615  1 At d -1       

 Vector   12  Occ=1.000000D+00  E=-1.908343D+00
              MO Center= -9.2D-14, -2.9D-14, -9.6D-15, r^2= 6.6D-02
  Bfn.         Coefficient        Function           Bfn.         Coefficient        Function  
  ----     -------------------  ------------         ----     -------------------  ------------
   231     0.168687   0.022476  1 At d  2             227    -0.023831   0.164545  1 At d -2       
   221     0.154767   0.020662  1 At d  2             217    -0.021848   0.151143  1 At d -2       
   226     0.146961   0.019628  1 At d  2             222    -0.020742   0.143555  1 At d -2       
    94    -0.093051  -0.095551  1 At d  1              84    -0.085453  -0.087587  1 At d  1       
    89    -0.081040  -0.083265  1 At d  1              92     0.071766   0.078116  1 At d -1       

 Vector   13  Occ=1.000000D+00  E=-1.760535D+00
              MO Center= -8.8D-14, -5.2D-14, -3.4D-14, r^2= 1.3D-01
  Bfn.         Coefficient        Function           Bfn.         Coefficient        Function  
  ----     -------------------  ------------         ----     -------------------  ------------
    91    -0.143565   0.098716  1 At d -2             228    -0.031919   0.170050  1 At d -1       
    93    -0.116349   0.091604  1 At d  0              86    -0.119550   0.082175  1 At d -2       
    81    -0.119467   0.082136  1 At d -2             223    -0.026640   0.141436  1 At d -1       
   218    -0.026581   0.140795  1 At d -1             230     0.038430   0.135546  1 At d  1       
    88    -0.096700   0.076134  1 At d  0              83    -0.095998   0.075581  1 At d  0       

 Vector   14  Occ=1.000000D+00  E=-1.760535D+00
              MO Center= -7.9D-14, -3.5D-14, -5.4D-15, r^2= 1.0D-01
  Bfn.         Coefficient        Function           Bfn.         Coefficient        Function  
  ----     -------------------  ------------         ----     -------------------  ------------
   229     0.022397   0.227480  1 At d  0             224     0.018638   0.189295  1 At d  0       
   219     0.018586   0.188771  1 At d  0              92     0.143836  -0.096165  1 At d -1       
    87     0.119697  -0.079919  1 At d -1              82     0.119198  -0.079512  1 At d -1       
    94     0.069963  -0.122291  1 At d  1             234     0.012550   0.127463  1 At d  0       
    89     0.058111  -0.101796  1 At d  1              84     0.057794  -0.101391  1 At d  1       

 Vector   15  Occ=1.000000D+00  E=-1.758651D+00
              MO Center= -1.6D-14, -2.1D-14, -3.2D-14, r^2= 8.7D-02
  Bfn.         Coefficient        Function           Bfn.         Coefficient        Function  
  ----     -------------------  ------------         ----     -------------------  ------------
    95     0.115146   0.172263  1 At d  2             230    -0.164428  -0.068767  1 At d  1       
    90     0.096019   0.143590  1 At d  2              85     0.095978   0.143456  1 At d  2       
   228     0.134250  -0.077474  1 At d -1             225    -0.137082  -0.057148  1 At d  1       
   220    -0.136984  -0.056880  1 At d  1             223     0.111913  -0.064361  1 At d -1       
   218     0.111821  -0.064030  1 At d -1             100     0.064616   0.096643  1 At d  2       

 Vector   16  Occ=1.000000D+00  E=-1.752202D+00
              MO Center= -9.9D-14,  5.7D-14, -6.2D-14, r^2= 1.6D-01
  Bfn.         Coefficient        Function           Bfn.         Coefficient        Function  
  ----     -------------------  ------------         ----     -------------------  ------------
    93    -0.138229   0.071775  1 At d  0              91     0.141085  -0.043861  1 At d -2       
   227     0.010813  -0.144419  1 At d -2              88    -0.115098   0.059764  1 At d  0       
    83    -0.114184   0.059290  1 At d  0              86     0.117688  -0.036643  1 At d -2       
    81     0.117159  -0.036499  1 At d -2             222     0.009022  -0.120308  1 At d -2       
   217     0.008934  -0.119461  1 At d -2              95    -0.022201  -0.115683  1 At d  2       

 Vector   17  Occ=1.000000D+00  E=-1.752202D+00
              MO Center= -2.9D-14,  8.3D-15,  1.5D-14, r^2= 8.8D-02
  Bfn.         Coefficient        Function           Bfn.         Coefficient        Function  
  ----     -------------------  ------------         ----     -------------------  ------------
   227    -0.008261   0.205627  1 At d -2             222    -0.006910   0.171337  1 At d -2       
   217    -0.006835   0.170197  1 At d -2             231    -0.119173   0.027720  1 At d  2       
    93    -0.105117   0.058052  1 At d  0             232    -0.004413   0.113531  1 At d -2       
   226    -0.099189   0.023117  1 At d  2             221    -0.098650   0.022941  1 At d  2       
    88    -0.087494   0.048319  1 At d  0              83    -0.086741   0.047904  1 At d  0       

 Vector   18  Occ=1.000000D+00  E=-1.751585D+00
              MO Center= -7.2D-15,  1.8D-15, -1.4D-14, r^2= 8.6D-02
  Bfn.         Coefficient        Function           Bfn.         Coefficient        Function  
  ----     -------------------  ------------         ----     -------------------  ------------
   231    -0.211371   0.007067  1 At d  2              94    -0.152106  -0.097285  1 At d  1       
   226    -0.176075   0.005839  1 At d  2             221    -0.174601   0.005797  1 At d  2       
    92     0.020137   0.154393  1 At d -1              89    -0.126499  -0.081199  1 At d  1       
    84    -0.125468  -0.080498  1 At d  1              87     0.017036   0.128412  1 At d -1       
    82     0.016858   0.127365  1 At d -1             236    -0.115996   0.004026  1 At d  2       

 Vector   19  Occ=1.000000D+00  E=-9.353813D-01
              MO Center= -3.9D-12, -9.8D-13, -1.1D-12, r^2= 4.2D-01
  Bfn.         Coefficient        Function           Bfn.         Coefficient        Function  
  ----     -------------------  ------------         ----     -------------------  ------------
     9     0.409463   0.577127  1 At s                 14     0.345806   0.487403  1 At s          
    12    -0.312608  -0.440612  1 At s                 11    -0.282342  -0.397952  1 At s          
    15     0.250840   0.353552  1 At s                 10    -0.226755  -0.319604  1 At s          
    13     0.178014   0.250906  1 At s                  7    -0.078243  -0.110282  1 At s          
   145    -0.112217  -0.006157  1 At s                150    -0.094771  -0.005200  1 At s          

 Vector   20  Occ=1.000000D+00  E=-9.353806D-01
              MO Center= -2.9D-13, -2.9D-14, -5.3D-13, r^2= 3.3D-02
  Bfn.         Coefficient        Function           Bfn.         Coefficient        Function  
  ----     -------------------  ------------         ----     -------------------  ------------
   145    -0.437010   0.556559  1 At s                150    -0.369069   0.470033  1 At s          
   148     0.333638  -0.424909  1 At s                147     0.301336  -0.383770  1 At s          
   151    -0.267715   0.340951  1 At s                146     0.242010  -0.308214  1 At s          
   149    -0.189990   0.241964  1 At s                143     0.083507  -0.106352  1 At s          
     9    -0.112384   0.000700  1 At s                 14    -0.094912   0.000591  1 At s          

 Vector   21  Occ=1.000000D+00  E=-4.649747D-01
              MO Center=  3.4D-12, -1.3D-13,  9.1D-13, r^2= 5.1D-01
  Bfn.         Coefficient        Function           Bfn.         Coefficient        Function  
  ----     -------------------  ------------         ----     -------------------  ------------
   185    -0.252707  -0.007600  1 At pz                48    -0.002296  -0.245313  1 At py         
    47     0.240265   0.016899  1 At px               182    -0.203142  -0.006109  1 At pz         
    45     0.000758  -0.199143  1 At py                44     0.196413   0.011138  1 At px         
   173     0.145800   0.004385  1 At pz               188    -0.143140  -0.004305  1 At pz         
    36    -0.000200   0.142673  1 At py                35    -0.140538  -0.008317  1 At px         

 Vector   22  Occ=1.000000D+00  E=-4.649744D-01
              MO Center=  4.4D-13,  4.4D-13, -1.2D-13, r^2= 1.1D-01
  Bfn.         Coefficient        Function           Bfn.         Coefficient        Function  
  ----     -------------------  ------------         ----     -------------------  ------------
    49     0.005791   0.252756  1 At pz               184    -0.245290  -0.004051  1 At py         
   183     0.015178   0.240379  1 At px                46     0.004655   0.203181  1 At pz         
   181    -0.199143  -0.000668  1 At py               180     0.009732   0.196488  1 At px         
    37    -0.003341  -0.145828  1 At pz                52     0.003280   0.143168  1 At pz         
   172     0.142671   0.000821  1 At py               171    -0.007311  -0.140594  1 At px         

 Vector   23  Occ=1.000000D+00  E=-3.700641D-01
              MO Center=  1.0D-13, -9.7D-13, -1.3D-13, r^2= 4.6D-01
  Bfn.         Coefficient        Function           Bfn.         Coefficient        Function  
  ----     -------------------  ------------         ----     -------------------  ------------
   185     0.336044  -0.000383  1 At pz               188     0.266377  -0.000303  1 At pz         
    48    -0.163944  -0.205667  1 At py                47     0.130375   0.163561  1 At px         
    51    -0.129956  -0.163029  1 At py               182     0.184685  -0.000210  1 At pz         
   176    -0.171196   0.000195  1 At pz                50     0.103346   0.129652  1 At px         
   173    -0.149875   0.000171  1 At pz                45    -0.090101  -0.113031  1 At py         

 Vector   24  Occ=1.000000D+00  E=-3.297319D-01
              MO Center=  1.3D-12,  5.9D-13, -1.1D-12, r^2= 9.7D-01
  Bfn.         Coefficient        Function           Bfn.         Coefficient        Function  
  ----     -------------------  ------------         ----     -------------------  ------------
    47    -0.270192  -0.109465  1 At px                48    -0.074218  -0.240879  1 At py         
    50    -0.228445  -0.091035  1 At px                51    -0.061200  -0.204151  1 At py         
    44    -0.154472  -0.065379  1 At px               185    -0.025710  -0.161106  1 At pz         
    38     0.144856   0.059317  1 At px                45    -0.045290  -0.136811  1 At py         
   188    -0.022021  -0.137990  1 At pz                35     0.124980   0.052028  1 At px         

 Vector   25  Occ=1.000000D+00  E=-3.297306D-01
              MO Center= -4.8D-13, -2.8D-13,  1.8D-13, r^2= 3.7D-01
  Bfn.         Coefficient        Function           Bfn.         Coefficient        Function  
  ----     -------------------  ------------         ----     -------------------  ------------
   183     0.073281   0.282164  1 At px               184     0.229138   0.105009  1 At py         
   186     0.060454   0.238369  1 At px               187     0.194422   0.087310  1 At py         
   180     0.044668   0.161681  1 At px                49    -0.156375  -0.046508  1 At pz         
   174    -0.039913  -0.151356  1 At px               181     0.129733   0.062751  1 At py         
    52    -0.133938  -0.039835  1 At pz               171    -0.035279  -0.130700  1 At px         

 Vector   26  Occ=0.000000D+00  E=-2.285914D-02
              MO Center= -3.1D-12, -4.7D-13, -3.0D-12, r^2= 7.5D-01
  Bfn.         Coefficient        Function           Bfn.         Coefficient        Function  
  ----     -------------------  ------------         ----     -------------------  ------------
    55     0.217292   0.271165  1 At pz                49     0.192491   0.240215  1 At pz         
   190     0.271968  -0.001007  1 At py               184     0.240927  -0.000892  1 At py         
   189    -0.216286   0.000803  1 At px               183    -0.191599   0.000711  1 At px         
    40    -0.099916  -0.124688  1 At pz               175    -0.125057   0.000463  1 At py         
    52     0.066595   0.083105  1 At pz                37    -0.066524  -0.083018  1 At pz         

 Vector   27  Occ=0.000000D+00  E= 1.146293D-01
              MO Center= -9.4D-11, -2.1D-11, -4.6D-11, r^2= 1.6D+00
  Bfn.         Coefficient        Function           Bfn.         Coefficient        Function  
  ----     -------------------  ------------         ----     -------------------  ------------
    55    -0.314392  -0.868911  1 At pz                52     0.288932   0.798546  1 At pz         
   190     0.824856  -0.183498  1 At py               189    -0.369792  -0.704321  1 At px         
   191     0.753797   0.253730  1 At pz               187    -0.755450   0.160887  1 At py         
   188    -0.692754  -0.233183  1 At pz                54    -0.141947   0.713353  1 At py         
   186     0.343127   0.637537  1 At px                53    -0.613235  -0.304586  1 At px         

 Vector   28  Occ=0.000000D+00  E= 1.146293D-01
              MO Center= -8.4D-11, -2.1D-11,  2.7D-11, r^2= 1.9D+00
  Bfn.         Coefficient        Function           Bfn.         Coefficient        Function  
  ----     -------------------  ------------         ----     -------------------  ------------
   191    -0.868333  -0.315971  1 At pz               188     0.798015   0.290383  1 At pz         
    54     0.184998  -0.824524  1 At py                53     0.703647   0.371076  1 At px         
    55    -0.252358  -0.754258  1 At pz                51    -0.162260   0.755159  1 At py         
    52     0.231922   0.693178  1 At pz               190     0.713610  -0.140647  1 At py         
    50    -0.636912  -0.344289  1 At px               189    -0.303470  -0.613787  1 At px         

 Vector   29  Occ=0.000000D+00  E= 1.211042D-01
              MO Center= -7.9D-12, -1.7D-10,  3.8D-11, r^2= 2.4D+00
  Bfn.         Coefficient        Function           Bfn.         Coefficient        Function  
  ----     -------------------  ------------         ----     -------------------  ------------
   151    -0.321366   3.148262  1 At s                 15     2.588369  -1.659525  1 At s          
   152     0.229760  -2.250841  1 At s                 16    -1.850547   1.186473  1 At s          
   150     0.220301  -2.158172  1 At s                 14    -1.774359   1.137625  1 At s          
   149    -0.165094   1.617343  1 At s                 13     1.329711  -0.852541  1 At s          
   148     0.110915  -1.086577  1 At s                 12    -0.893338   0.572761  1 At s          

 Vector   30  Occ=0.000000D+00  E= 1.211043D-01
              MO Center=  4.7D-12, -1.9D-11, -3.1D-11, r^2= 3.5D-01
  Bfn.         Coefficient        Function           Bfn.         Coefficient        Function  
  ----     -------------------  ------------         ----     -------------------  ------------
    15     0.986158  -3.007045  1 At s                151    -1.690264  -2.568403  1 At s          
    16    -0.705051   2.149879  1 At s                152     1.208449   1.836273  1 At s          
    14    -0.676023   2.061367  1 At s                150     1.158697   1.760673  1 At s          
    13     0.506614  -1.544796  1 At s                149    -0.868332  -1.319455  1 At s          
    12    -0.340358   1.037838  1 At s                148     0.583370   0.886447  1 At s          

 Vector   31  Occ=0.000000D+00  E= 1.251788D-01
              MO Center=  6.7D-11, -8.9D-11,  1.3D-11, r^2= 2.3D+00
  Bfn.         Coefficient        Function           Bfn.         Coefficient        Function  
  ----     -------------------  ------------         ----     -------------------  ------------
   191     1.433849   0.009137  1 At pz               188    -1.422313  -0.009063  1 At pz         
    54    -0.692925  -0.882794  1 At py                51     0.687350   0.875692  1 At py         
    53     0.551042   0.702062  1 At px                50    -0.546609  -0.696413  1 At px         
   185     0.631394   0.004023  1 At pz               182    -0.521651  -0.003324  1 At pz         
    48    -0.305129  -0.388738  1 At py                45     0.252094   0.321171  1 At py         

 Vector   32  Occ=0.000000D+00  E= 1.308566D-01
              MO Center=  3.5D-11, -8.9D-12, -1.6D-11, r^2= 1.9D+00
  Bfn.         Coefficient        Function           Bfn.         Coefficient        Function  
  ----     -------------------  ------------         ----     -------------------  ------------
    50    -0.755488  -1.070930  1 At px                53     0.741605   1.062673  1 At px         
    51     0.164504  -1.097609  1 At py                54    -0.154652   1.084328  1 At py         
   186    -0.565620  -0.442943  1 At px               189     0.561480   0.435117  1 At px         
   188     0.222181  -0.588652  1 At pz               191    -0.216115   0.572582  1 At pz         
   187    -0.605424   0.060018  1 At py               190     0.597883  -0.054987  1 At py         

 Vector   33  Occ=0.000000D+00  E= 1.308567D-01
              MO Center=  3.5D-12, -1.2D-11,  2.0D-11, r^2= 1.4D+00
  Bfn.         Coefficient        Function           Bfn.         Coefficient        Function  
  ----     -------------------  ------------         ----     -------------------  ------------
   186     0.603992   1.163120  1 At px               189    -0.603038  -1.146994  1 At px         
   187     1.050449   0.358279  1 At py               190    -1.034126  -0.360926  1 At py         
    50    -0.133484  -0.705908  1 At px                53     0.128435   0.698634  1 At px         
    52    -0.624920  -0.073171  1 At pz                55     0.607860   0.071173  1 At pz         
    51     0.331512  -0.510135  1 At py                54    -0.323579   0.505749  1 At py         

 Vector   34  Occ=0.000000D+00  E= 1.467294D-01
              MO Center= -1.6D-12,  7.5D-13,  7.2D-12, r^2= 2.2D+00
  Bfn.         Coefficient        Function           Bfn.         Coefficient        Function  
  ----     -------------------  ------------         ----     -------------------  ------------
    52    -1.024217  -1.275105  1 At pz                55     0.904061   1.125517  1 At pz         
   187    -1.280070   0.006227  1 At py               190     1.129899  -0.005496  1 At py         
   186     1.017989  -0.004967  1 At px               189    -0.898564   0.004384  1 At px         
    49     0.430226   0.535612  1 At pz                46    -0.373193  -0.464609  1 At pz         
   184     0.537698  -0.002616  1 At py               181    -0.466418   0.002269  1 At py         

 Vector   35  Occ=0.000000D+00  E= 2.124488D-01
              MO Center= -1.7D-13, -6.5D-13, -4.4D-13, r^2= 1.3D+00
  Bfn.         Coefficient        Function           Bfn.         Coefficient        Function  
  ----     -------------------  ------------         ----     -------------------  ------------
   115    -0.421765  -0.723228  1 At d  2             250     0.645640   0.424549  1 At d  1       
   248    -0.561345   0.450390  1 At d -1             105    -0.322633  -0.553749  1 At d  2       
   110     0.321904   0.552956  1 At d  2             240     0.494125   0.326393  1 At d  1       
   245    -0.493221  -0.327124  1 At d  1             243     0.429174  -0.347565  1 At d -1       
   238    -0.429795   0.346539  1 At d -1             113     0.438259  -0.307053  1 At d  0       

 Vector   36  Occ=0.000000D+00  E= 2.140517D-01
              MO Center= -2.5D-12, -1.7D-12, -3.0D-13, r^2= 2.8D+00
  Bfn.         Coefficient        Function           Bfn.         Coefficient        Function  
  ----     -------------------  ------------         ----     -------------------  ------------
   249     0.722754  -0.555734  1 At d  0             112     0.809393   0.159543  1 At d -1       
   239     0.559154  -0.429940  1 At d  0             244    -0.556059   0.427561  1 At d  0       
   114     0.623749   0.207110  1 At d  1             102     0.625889   0.124605  1 At d -1       
   107    -0.623409  -0.119955  1 At d -1             234    -0.441022   0.339108  1 At d  0       
   247     0.397706  -0.324182  1 At d -2             104     0.482927   0.158751  1 At d  1       

 Vector   37  Occ=0.000000D+00  E= 2.149750D-01
              MO Center= -1.6D-12, -6.5D-13, -3.3D-13, r^2= 1.5D+00
  Bfn.         Coefficient        Function           Bfn.         Coefficient        Function  
  ----     -------------------  ------------         ----     -------------------  ------------
   248    -0.460547  -0.615611  1 At d -1             113    -0.516777   0.529217  1 At d  0       
   250     0.407452  -0.587142  1 At d  1             115    -0.492625  -0.346550  1 At d  2       
   238    -0.356112  -0.478026  1 At d -1             243     0.351367   0.473281  1 At d -1       
   103    -0.401134   0.410790  1 At d  0             108     0.397038  -0.406595  1 At d  0       
   240     0.314544  -0.455535  1 At d  1             245    -0.309939   0.450706  1 At d  1       

 Vector   38  Occ=0.000000D+00  E= 2.151110D-01
              MO Center= -5.6D-13,  1.5D-12, -2.0D-12, r^2= 3.1D+00
  Bfn.         Coefficient        Function           Bfn.         Coefficient        Function  
  ----     -------------------  ------------         ----     -------------------  ------------
   111     1.070002  -0.477281  1 At d -2             101     0.824142  -0.367819  1 At d -2       
   106    -0.823053   0.366197  1 At d -2              96    -0.656771   0.292464  1 At d -2       
   248     0.250934  -0.448924  1 At d -1              91     0.453177  -0.202077  1 At d -2       
   250    -0.111057  -0.421433  1 At d  1              86    -0.373639   0.166693  1 At d -2       
   243    -0.196002   0.348373  1 At d -1             238     0.192723  -0.345616  1 At d -1       

 Vector   39  Occ=0.000000D+00  E= 2.151110D-01
              MO Center= -7.2D-13, -1.9D-13, -1.5D-13, r^2= 1.5D+00
  Bfn.         Coefficient        Function           Bfn.         Coefficient        Function  
  ----     -------------------  ------------         ----     -------------------  ------------
   249    -0.280490   1.017317  1 At d  0             244     0.216394  -0.784847  1 At d  0       
   239    -0.216003   0.783427  1 At d  0             234     0.172314  -0.624972  1 At d  0       
   247     0.094892  -0.554603  1 At d -2             112     0.511753  -0.050004  1 At d -1       
   111     0.446371  -0.161847  1 At d -2             229    -0.118971   0.431500  1 At d  0       
   114     0.282566  -0.331731  1 At d  1             237     0.073378  -0.427529  1 At d -2       

 Vector   40  Occ=0.000000D+00  E= 2.194937D-01
              MO Center=  1.0D-13, -2.5D-13, -1.5D-13, r^2= 1.2D+00
  Bfn.         Coefficient        Function           Bfn.         Coefficient        Function  
  ----     -------------------  ------------         ----     -------------------  ------------
   115    -0.632859  -0.678888  1 At d  2             250    -0.742588   0.142997  1 At d  1       
   105    -0.493457  -0.528844  1 At d  2             110     0.491933   0.529627  1 At d  2       
   248     0.592807   0.167566  1 At d -1             245     0.578411  -0.112863  1 At d  1       
   240    -0.578706   0.110998  1 At d  1             100     0.389001   0.418357  1 At d  2       
   243    -0.461769  -0.132381  1 At d -1             238     0.461973   0.130032  1 At d -1       

 Vector   41  Occ=0.000000D+00  E= 2.194938D-01
              MO Center= -4.0D-13,  3.2D-13, -8.1D-13, r^2= 1.2D+00
  Bfn.         Coefficient        Function           Bfn.         Coefficient        Function  
  ----     -------------------  ------------         ----     -------------------  ------------
   251    -0.925938  -0.004122  1 At d  2             114     0.576365   0.489577  1 At d  1       
   241    -0.721594  -0.003715  1 At d  2             246     0.721216   0.001367  1 At d  2       
   112    -0.240420  -0.567181  1 At d -1             109    -0.450092  -0.380410  1 At d  1       
   104     0.448823   0.381807  1 At d  1             236     0.569963   0.001556  1 At d  2       
   107     0.185829   0.442968  1 At d -1             102    -0.187789  -0.441657  1 At d -1       

 Vector   42  Occ=0.000000D+00  E= 2.340244D-01
              MO Center=  2.7D-17, -3.4D-14, -3.2D-14, r^2= 4.9D-02
  Bfn.         Coefficient        Function           Bfn.         Coefficient        Function  
  ----     -------------------  ------------         ----     -------------------  ------------
   247     1.071110   0.644512  1 At d -2             242    -0.886128  -0.532186  1 At d -2       
   237     0.853684   0.514019  1 At d -2             232    -0.679983  -0.408575  1 At d -2       
   112    -0.056496  -0.675415  1 At d -1             107     0.049843   0.563345  1 At d -1       
   227     0.481709   0.289824  1 At d -2             114    -0.124922  -0.525731  1 At d  1       
   102    -0.044124  -0.537670  1 At d -1             109     0.100883   0.439278  1 At d  1       

 Vector   43  Occ=0.000000D+00  E= 2.340245D-01
              MO Center= -4.5D-14,  5.9D-15, -3.0D-15, r^2= 7.4D-02
  Bfn.         Coefficient        Function           Bfn.         Coefficient        Function  
  ----     -------------------  ------------         ----     -------------------  ------------
   113    -0.150940   1.230602  1 At d  0             108     0.125281  -1.021410  1 At d  0       
   103    -0.120244   0.980342  1 At d  0              98     0.095938  -0.782175  1 At d  0       
   248     0.446293   0.510104  1 At d -1             243    -0.374432  -0.423849  1 At d -1       
    93    -0.067988   0.554302  1 At d  0             250     0.412554   0.349001  1 At d  1       
   238     0.354591   0.406578  1 At d -1             245    -0.341898  -0.293685  1 At d  1       

 Vector   44  Occ=0.000000D+00  E= 2.364955D-01
              MO Center= -6.2D-13,  6.8D-13, -3.8D-13, r^2= 1.2D+00
  Bfn.         Coefficient        Function           Bfn.         Coefficient        Function  
  ----     -------------------  ------------         ----     -------------------  ------------
   251    -1.085701  -0.002159  1 At d  2             246     0.904832   0.001279  1 At d  2       
   114    -0.518515  -0.702102  1 At d  1             241    -0.868475  -0.001922  1 At d  2       
   109     0.434380   0.583340  1 At d  1             104    -0.413927  -0.562302  1 At d  1       
   112     0.467527   0.514139  1 At d -1             236     0.692236   0.001061  1 At d  2       
   107    -0.386820  -0.430750  1 At d -1              99     0.331962   0.446567  1 At d  1       

 Vector   45  Occ=0.000000D+00  E= 4.829656D-01
              MO Center= -1.4D-12, -7.4D-13, -1.3D-13, r^2= 1.5D+00
  Bfn.         Coefficient        Function           Bfn.         Coefficient        Function  
  ----     -------------------  ------------         ----     -------------------  ------------
   188    -2.068243  -0.920818  1 At pz                51     0.750234  -2.024148  1 At py         
    50     1.853743   0.976272  1 At px               185     1.790993   0.797382  1 At pz         
    48    -0.639582   1.750203  1 At py                47    -1.592570  -0.848679  1 At px         
    52     0.385565   1.491397  1 At pz               187    -1.442643   0.276044  1 At py         
   186     0.446879   1.353683  1 At px                49    -0.333880  -1.291474  1 At pz         

 Vector   46  Occ=0.000000D+00  E= 4.829657D-01
              MO Center= -3.6D-13, -1.7D-13,  4.9D-13, r^2= 8.5D-01
  Bfn.         Coefficient        Function           Bfn.         Coefficient        Function  
  ----     -------------------  ------------         ----     -------------------  ------------
    52     0.725788   2.144477  1 At pz               187    -2.084805   0.560005  1 At py         
   186     0.800821   1.936013  1 At px                49    -0.628496  -1.857009  1 At pz         
   184     1.801809  -0.475138  1 At py               183    -0.697905  -1.664169  1 At px         
   188     1.449391   0.521711  1 At pz                51    -0.408154   1.410969  1 At py         
    50    -1.306604  -0.570041  1 At px               185    -1.255099  -0.451775  1 At pz         

 Vector   47  Occ=0.000000D+00  E= 5.342822D-01
              MO Center= -6.2D-13,  6.1D-13, -3.1D-14, r^2= 1.4D+00
  Bfn.         Coefficient        Function           Bfn.         Coefficient        Function  
  ----     -------------------  ------------         ----     -------------------  ------------
   188    -3.290268   0.062507  1 At pz               185     3.104870  -0.058985  1 At pz         
    51     1.641200   1.985100  1 At py                48    -1.548723  -1.873246  1 At py         
    50    -1.305155  -1.578693  1 At px                47     1.231613   1.489738  1 At px         
   182    -1.353727   0.025718  1 At pz               191     1.247029  -0.023691  1 At pz         
    45     0.675245   0.816737  1 At py                54    -0.622024  -0.752364  1 At py         

 Vector   48  Occ=0.000000D+00  E= 5.469310D-01
              MO Center= -4.6D-13,  3.5D-13,  2.3D-13, r^2= 9.8D-01
  Bfn.         Coefficient        Function           Bfn.         Coefficient        Function  
  ----     -------------------  ------------         ----     -------------------  ------------
    50     1.108075   2.601375  1 At px                47    -1.060869  -2.472268  1 At px         
    51    -1.038149   2.193528  1 At py                48     0.996351  -2.085697  1 At py         
   186     0.970981   1.342760  1 At px               183    -0.920436  -1.280029  1 At px         
   188    -0.858643   1.236584  1 At pz               185     0.823150  -1.185468  1 At pz         
   187     1.415099   0.141942  1 At py               184    -1.348327  -0.130327  1 At py         

 Vector   49  Occ=0.000000D+00  E= 5.469312D-01
              MO Center= -3.4D-13,  4.6D-13, -5.4D-13, r^2= 9.8D-01
  Bfn.         Coefficient        Function           Bfn.         Coefficient        Function  
  ----     -------------------  ------------         ----     -------------------  ------------
   186    -1.191736  -2.564127  1 At px               183     1.127379   2.442657  1 At px         
   187    -2.324759  -0.696281  1 At py               184     2.216658   0.655189  1 At py         
    50     0.348135   1.620062  1 At px                47    -0.335338  -1.540525  1 At px         
    52     1.493507   0.189351  1 At pz                49    -1.431771  -0.181524  1 At pz         
    51    -0.841403   1.146595  1 At py                48     0.805356  -1.089203  1 At py         

 Vector   50  Occ=0.000000D+00  E= 5.637806D-01
              MO Center=  1.2D-15,  3.6D-15, -2.7D-14, r^2= 4.2D-01
  Bfn.         Coefficient        Function           Bfn.         Coefficient        Function  
  ----     -------------------  ------------         ----     -------------------  ------------
   269     0.665273   0.135789  1 At f  0             132     0.319645   0.585863  1 At f -1       
   134     0.218846   0.483892  1 At f  1             267     0.524124   0.078855  1 At f -2       
   262    -0.313745  -0.064039  1 At f  0             125    -0.150871  -0.276245  1 At f -1       
   127    -0.103063  -0.228290  1 At f  1             260    -0.247141  -0.037222  1 At f -2       
   136     0.157120   0.157295  1 At f  3             255     0.202151   0.041261  1 At f  0       

 Vector   51  Occ=0.000000D+00  E= 5.637806D-01
              MO Center= -1.5D-14,  2.8D-14, -4.0D-15, r^2= 6.7D-01
  Bfn.         Coefficient        Function           Bfn.         Coefficient        Function  
  ----     -------------------  ------------         ----     -------------------  ------------
   133    -0.420085  -0.554635  1 At f  0             268     0.669860   0.116968  1 At f -1       
   270     0.537617  -0.114482  1 At f  1             131    -0.284909  -0.421802  1 At f -2       
   126     0.198095   0.261544  1 At f  0             261    -0.315918  -0.054852  1 At f -1       
   263    -0.253535   0.053599  1 At f  1             124     0.134401   0.198904  1 At f -2       
   119    -0.127521  -0.168365  1 At f  0             254     0.203361   0.034713  1 At f -1       

 Vector   52  Occ=0.000000D+00  E= 5.655009D-01
              MO Center= -8.0D-13, -4.3D-13, -1.2D-12, r^2= 1.5D+00
  Bfn.         Coefficient        Function           Bfn.         Coefficient        Function  
  ----     -------------------  ------------         ----     -------------------  ------------
    52     2.196665   2.358693  1 At pz                49    -2.164203  -2.323838  1 At pz         
   187     2.515034  -0.196559  1 At py               184    -2.477868   0.193655  1 At py         
   186    -2.000104   0.156342  1 At px               183     1.970547  -0.154031  1 At px         
    46     0.957214   1.027820  1 At pz                55    -0.811540  -0.871400  1 At pz         
   181     1.095946  -0.085652  1 At py               190    -0.929158   0.072617  1 At py         

 Vector   53  Occ=0.000000D+00  E= 5.672118D-01
              MO Center=  1.4D-13, -2.1D-13,  8.6D-14, r^2= 9.9D-01
  Bfn.         Coefficient        Function           Bfn.         Coefficient        Function  
  ----     -------------------  ------------         ----     -------------------  ------------
   269     0.626493  -0.348753  1 At f  0             130    -0.010528   0.625833  1 At f -3       
   136    -0.549631   0.073757  1 At f  3             271    -0.182941  -0.316620  1 At f  2       
   262    -0.295988   0.164769  1 At f  0             131     0.309412   0.111704  1 At f -2       
   123     0.004868  -0.294284  1 At f -3             268     0.270482  -0.022868  1 At f -1       
   129     0.258594  -0.034607  1 At f  3             270     0.103684  -0.218312  1 At f  1       

 Vector   54  Occ=0.000000D+00  E= 5.672119D-01
              MO Center=  4.5D-14, -1.6D-13, -4.4D-14, r^2= 1.0D+00
  Bfn.         Coefficient        Function           Bfn.         Coefficient        Function  
  ----     -------------------  ------------         ----     -------------------  ------------
   131    -0.592253  -0.350205  1 At f -2             270    -0.155937   0.537072  1 At f  1       
   268    -0.434039  -0.289475  1 At f -1             135     0.098450  -0.385926  1 At f  2       
   269     0.350109  -0.086337  1 At f  0             272     0.333549   0.000004  1 At f  3       
   124     0.279448   0.165300  1 At f -2             263     0.074186  -0.252837  1 At f  1       
   261     0.205217   0.135906  1 At f -1             136    -0.230526  -0.066472  1 At f  3       

 Vector   55  Occ=0.000000D+00  E= 5.674313D-01
              MO Center=  2.5D-13,  3.1D-14,  2.0D-14, r^2= 9.3D-01
  Bfn.         Coefficient        Function           Bfn.         Coefficient        Function  
  ----     -------------------  ------------         ----     -------------------  ------------
   136    -0.591411  -0.456939  1 At f  3             267     0.639994  -0.155022  1 At f -2       
   269    -0.516477   0.062488  1 At f  0             130     0.119107   0.382760  1 At f -3       
   271     0.190073   0.312751  1 At f  2             129     0.277763   0.214262  1 At f  3       
   260    -0.300343   0.072990  1 At f -2             134     0.242755  -0.057827  1 At f  1       
   262     0.242402  -0.029328  1 At f  0             132     0.000167   0.236579  1 At f -1       

 Vector   56  Occ=0.000000D+00  E= 5.683184D-01
              MO Center= -1.4D-13,  1.8D-13, -5.1D-16, r^2= 1.5D+00
  Bfn.         Coefficient        Function           Bfn.         Coefficient        Function  
  ----     -------------------  ------------         ----     -------------------  ------------
   130    -0.620656  -0.481981  1 At f -3             136    -0.492738   0.213296  1 At f  3       
   271     0.471542  -0.228337  1 At f  2             269    -0.199312  -0.382263  1 At f  0       
   123     0.291585   0.226717  1 At f -3             132    -0.148171   0.294550  1 At f -1       
   134    -0.088318   0.247367  1 At f  1             129     0.231758  -0.100678  1 At f  3       
   264    -0.222300   0.107956  1 At f  2             116    -0.188157  -0.146500  1 At f -3       

 Vector   57  Occ=0.000000D+00  E= 5.683185D-01
              MO Center= -5.4D-14,  6.7D-16,  8.0D-15, r^2= 6.9D-01
  Bfn.         Coefficient        Function           Bfn.         Coefficient        Function  
  ----     -------------------  ------------         ----     -------------------  ------------
   270    -0.035720  -0.738680  1 At f  1             268    -0.635123   0.257274  1 At f -1       
   135    -0.532631   0.013538  1 At f  2             131     0.030048  -0.439385  1 At f -2       
   263     0.018040   0.348028  1 At f  1             261     0.300266  -0.120223  1 At f -1       
   128     0.251254  -0.006344  1 At f  2             256    -0.010543  -0.223630  1 At f  1       
   269     0.188842   0.093962  1 At f  0             124    -0.014135   0.207441  1 At f -2       

 Vector   58  Occ=0.000000D+00  E= 5.702436D-01
              MO Center= -2.6D-13,  5.1D-14, -4.3D-15, r^2= 3.9D-01
  Bfn.         Coefficient        Function           Bfn.         Coefficient        Function  
  ----     -------------------  ------------         ----     -------------------  ------------
   135     0.399424   0.798407  1 At f  2             270     0.557671   0.102454  1 At f  1       
   266    -0.492175  -0.121748  1 At f -3             268    -0.440028  -0.098852  1 At f -1       
   128    -0.189252  -0.378304  1 At f  2             121     0.121236   0.241627  1 At f  2       
   263    -0.264237  -0.048541  1 At f  1             272    -0.246199   0.000317  1 At f  3       
   259     0.233201   0.057697  1 At f -3             261     0.208494   0.046843  1 At f -1       

 Vector   59  Occ=0.000000D+00  E= 5.707674D-01
              MO Center= -5.4D-13, -3.1D-13, -8.9D-14, r^2= 1.6D+00
  Bfn.         Coefficient        Function           Bfn.         Coefficient        Function  
  ----     -------------------  ------------         ----     -------------------  ------------
   271     0.548462  -0.626487  1 At f  2             134    -0.525865   0.066269  1 At f  1       
   130     0.474589   0.129468  1 At f -3             132     0.420960   0.055791  1 At f -1       
   264    -0.259876   0.297119  1 At f  2             136     0.216911  -0.302521  1 At f  3       
   267     0.093278   0.310796  1 At f -2             257     0.166682  -0.190115  1 At f  2       
   127     0.249311  -0.031260  1 At f  1             123    -0.224987  -0.060958  1 At f -3       

 Vector   60  Occ=0.000000D+00  E= 5.798222D-01
              MO Center= -3.3D-13,  1.3D-13, -3.3D-13, r^2= 7.9D-01
  Bfn.         Coefficient        Function           Bfn.         Coefficient        Function  
  ----     -------------------  ------------         ----     -------------------  ------------
   267    -0.776726   0.005625  1 At f -2             132     0.360350   0.326767  1 At f -1       
   133    -0.310001  -0.362771  1 At f  0             136    -0.280722  -0.348047  1 At f  3       
   134     0.190262   0.342153  1 At f  1             260     0.374134  -0.002679  1 At f -2       
   272    -0.348445  -0.000052  1 At f  3             125    -0.174261  -0.158198  1 At f -1       
   253    -0.232437   0.001735  1 At f -2             126     0.149746   0.175236  1 At f  0       

 Vector   61  Occ=0.000000D+00  E= 5.798223D-01
              MO Center= -7.2D-14, -8.1D-14, -9.0D-14, r^2= 8.3D-01
  Bfn.         Coefficient        Function           Bfn.         Coefficient        Function  
  ----     -------------------  ------------         ----     -------------------  ------------
   133    -0.513182  -0.574269  1 At f  0             272    -0.661628  -0.000145  1 At f  3       
   267     0.453361  -0.020695  1 At f -2             126     0.247550   0.277017  1 At f  0       
   132    -0.238001  -0.238646  1 At f -1             266     0.309684  -0.097934  1 At f -3       
   265     0.317925   0.000092  1 At f  3             134    -0.160990  -0.215052  1 At f  1       
   268    -0.236109  -0.019641  1 At f -1             119    -0.153265  -0.171509  1 At f  0       

 Vector   62  Occ=0.000000D+00  E= 5.854078D-01
              MO Center= -8.8D-14, -3.0D-14,  9.2D-14, r^2= 8.5D-01
  Bfn.         Coefficient        Function           Bfn.         Coefficient        Function  
  ----     -------------------  ------------         ----     -------------------  ------------
   266     0.867489  -0.191977  1 At f -3             135     0.436703   0.366723  1 At f  2       
   259    -0.420310   0.092971  1 At f -3             272     0.429765  -0.000306  1 At f  3       
   134     0.291481   0.294192  1 At f  1             132    -0.270132  -0.190410  1 At f -1       
   128    -0.212461  -0.178489  1 At f  2             252     0.259060  -0.057946  1 At f -3       
   130     0.178614   0.180959  1 At f -3             271     0.233266  -0.053166  1 At f  2       

 Vector   63  Occ=0.000000D+00  E= 5.854079D-01
              MO Center= -2.3D-13,  5.8D-14, -8.1D-13, r^2= 1.3D+00
  Bfn.         Coefficient        Function           Bfn.         Coefficient        Function  
  ----     -------------------  ------------         ----     -------------------  ------------
   134     0.546316   0.502165  1 At f  1             132    -0.485456  -0.337662  1 At f -1       
   271     0.555028  -0.130940  1 At f  2             266    -0.508293   0.133078  1 At f -3       
   127    -0.264942  -0.243475  1 At f  1             125     0.235371   0.163777  1 At f -1       
   264    -0.270082   0.063681  1 At f  2             272    -0.255606   0.000180  1 At f  3       
   259     0.246097  -0.064412  1 At f -3             130     0.168906   0.173646  1 At f -3       

 Vector   64  Occ=0.000000D+00  E= 5.873454D-01
              MO Center=  3.5D-14,  2.5D-13, -3.2D-13, r^2= 7.0D-01
  Bfn.         Coefficient        Function           Bfn.         Coefficient        Function  
  ----     -------------------  ------------         ----     -------------------  ------------
   272    -0.808415  -0.000127  1 At f  3             131    -0.443041  -0.557899  1 At f -2       
   133     0.344122   0.449739  1 At f  0             265     0.392527   0.000106  1 At f  3       
   266     0.384551   0.038673  1 At f -3             124     0.215089   0.270912  1 At f -2       
    49     0.208848   0.272946  1 At pz                52    -0.208127  -0.272005  1 At pz         
   126    -0.167089  -0.218372  1 At f  0             184     0.268948   0.005038  1 At py         

 Vector   65  Occ=0.000000D+00  E= 6.220114D-01
              MO Center=  2.9D-12, -1.3D-13,  2.5D-12, r^2= 1.8D+00
  Bfn.         Coefficient        Function           Bfn.         Coefficient        Function  
  ----     -------------------  ------------         ----     -------------------  ------------
   108    -2.010134   0.502160  1 At d  0             243     0.078716  -2.021419  1 At d -1       
   245     1.492988  -0.956664  1 At d  1             103     1.552682  -0.387882  1 At d  0       
   238    -0.061437   1.561109  1 At d -1             240    -1.152426   0.739316  1 At d  1       
    98    -1.240254   0.309833  1 At d  0             233     0.048594  -1.247205  1 At d -1       
   110    -0.551783  -1.097439  1 At d  2             106    -1.063661   0.551185  1 At d -2       

 Vector   66  Occ=0.000000D+00  E= 6.243134D-01
              MO Center=  1.3D-12,  1.1D-13,  1.2D-12, r^2= 9.0D-01
  Bfn.         Coefficient        Function           Bfn.         Coefficient        Function  
  ----     -------------------  ------------         ----     -------------------  ------------
   244     0.563266   2.243561  1 At d  0             107    -1.456097   1.518283  1 At d -1       
   239    -0.436059  -1.736881  1 At d  0             109    -0.776281   1.499394  1 At d  1       
   102     1.124739  -1.177323  1 At d -1             234     0.347509   1.384174  1 At d  0       
   104     0.604132  -1.158353  1 At d  1             242     0.234717   1.282715  1 At d -2       
    97    -0.899729   0.935653  1 At d -1             229    -0.284475  -1.133102  1 At d  0       

 Vector   67  Occ=0.000000D+00  E= 6.284843D-01
              MO Center=  4.7D-12,  6.6D-13,  1.6D-12, r^2= 1.4D+00
  Bfn.         Coefficient        Function           Bfn.         Coefficient        Function  
  ----     -------------------  ------------         ----     -------------------  ------------
   106    -1.220023   2.120952  1 At d -2             101     0.947838  -1.645870  1 At d -2       
   110    -1.588364  -0.549726  1 At d  2              96    -0.752938   1.310140  1 At d -2       
   245    -1.098125   0.904522  1 At d  1              14    -0.883785   1.110330  1 At s          
   105     1.229781   0.424162  1 At d  2             243     1.166049   0.549978  1 At d -1       
    91     0.617865  -1.073573  1 At d -2              15     0.754750  -0.948220  1 At s          

 Vector   68  Occ=0.000000D+00  E= 6.284844D-01
              MO Center=  1.9D-12,  3.0D-13,  7.0D-13, r^2= 8.4D-01
  Bfn.         Coefficient        Function           Bfn.         Coefficient        Function  
  ----     -------------------  ------------         ----     -------------------  ------------
   244     0.173846   2.014697  1 At d  0             246    -1.607565  -0.192029  1 At d  2       
   239    -0.135189  -1.566702  1 At d  0             242     0.242369  -1.452121  1 At d -2       
   109     1.336159   0.488582  1 At d  1             150    -0.122000  -1.413853  1 At s          
   107    -0.116594  -1.283938  1 At d -1             241     1.243708   0.148366  1 At d  2       
   234     0.107161   1.241883  1 At d  0             151     0.104188   1.207427  1 At s          

 Vector   69  Occ=0.000000D+00  E= 6.372436D-01
              MO Center=  3.2D-12, -7.8D-14,  8.6D-13, r^2= 1.2D+00
  Bfn.         Coefficient        Function           Bfn.         Coefficient        Function  
  ----     -------------------  ------------         ----     -------------------  ------------
   110    -1.510988  -1.849441  1 At d  2             245     1.966724   0.642984  1 At d  1       
   105     1.182822   1.448021  1 At d  2             243    -1.447340   1.093623  1 At d -1       
   240    -1.539797  -0.504269  1 At d  1             100    -0.931881  -1.140647  1 At d  2       
   238     1.133030  -0.857298  1 At d -1             235     1.212976   0.396661  1 At d  1       
    95     0.769877   0.942184  1 At d  2             115     0.721835   0.883021  1 At d  2       

 Vector   70  Occ=0.000000D+00  E= 6.400927D-01
              MO Center=  3.4D-12,  1.4D-12,  1.7D-12, r^2= 1.4D+00
  Bfn.         Coefficient        Function           Bfn.         Coefficient        Function  
  ----     -------------------  ------------         ----     -------------------  ------------
    14     1.747675  -1.393902  1 At s                 15    -1.490751   1.188986  1 At s          
   106     1.661795  -0.796093  1 At d -2             110    -0.792145  -1.658665  1 At d  2       
   245    -1.439697  -0.716185  1 At d  1             243     1.142842  -0.904750  1 At d -1       
   101    -1.307289   0.628523  1 At d -2             105     0.618143   1.299059  1 At d  2       
   240     1.126434   0.562653  1 At d  1              13    -0.967823   0.771911  1 At s          

 Vector   71  Occ=0.000000D+00  E= 6.400928D-01
              MO Center=  1.2D-12, -5.2D-14,  4.8D-13, r^2= 9.8D-01
[...]
              MO Center=  1.9D-17, -1.2D-15, -1.4D-16, r^2= 2.7D-03
  Bfn.         Coefficient        Function           Bfn.         Coefficient        Function  
  ----     -------------------  ------------         ----     -------------------  ------------
    81    -1.676773  -0.391956  1 At d -2              76     1.607522   0.375769  1 At d -2       
    86     1.384769   0.323699  1 At d -2              85    -0.478768   1.106173  1 At d  2       
    80     0.458995  -1.060488  1 At d  2              71    -1.026274  -0.239898  1 At d -2       
    83     1.023106   0.078026  1 At d  0              90     0.395392  -0.913537  1 At d  2       
    78    -0.980851  -0.074803  1 At d  0              91    -0.899648  -0.210298  1 At d -2       

 Vector  258  Occ=0.000000D+00  E= 1.652165D+03
              MO Center= -9.3D-17,  1.6D-17, -2.8D-16, r^2= 8.4D-04
  Bfn.         Coefficient        Function           Bfn.         Coefficient        Function  
  ----     -------------------  ------------         ----     -------------------  ------------
   217    -1.734576   0.086061  1 At d -2             212     1.662938  -0.082506  1 At d -2       
   222     1.432506  -0.071074  1 At d -2             221    -0.277897  -1.174027  1 At d  2       
   216     0.266420   1.125540  1 At d  2             207    -1.061652   0.052674  1 At d -2       
   219     0.994314   0.102395  1 At d  0             226     0.229502   0.969575  1 At d  2       
   214    -0.953248  -0.098166  1 At d  0             227    -0.930661   0.046175  1 At d -2       

 Vector  259  Occ=0.000000D+00  E= 3.598498D+03
              MO Center= -3.8D-17,  3.5D-16, -3.9D-16, r^2= 1.4D-03
  Bfn.         Coefficient        Function           Bfn.         Coefficient        Function  
  ----     -------------------  ------------         ----     -------------------  ------------
     7    16.088444  23.178265  1 At s                  8   -14.999727 -21.609775  1 At s          
     6   -11.794531 -16.992121  1 At s                  9    11.026792  15.886056  1 At s          
    10    -6.569053  -9.463889  1 At s                  5     4.646712   6.694415  1 At s          
    11     3.155215   4.545648  1 At s                 12    -1.512517  -2.179050  1 At s          
     4    -1.350225  -1.945240  1 At s                 13     0.721519   1.039476  1 At s          

 Vector  260  Occ=0.000000D+00  E= 3.598498D+03
              MO Center=  2.2D-19,  5.7D-19, -7.1D-19, r^2= 1.5D-06
  Bfn.         Coefficient        Function           Bfn.         Coefficient        Function  
  ----     -------------------  ------------         ----     -------------------  ------------
   143   -22.865400  16.530077  1 At s                144    21.318082 -15.411475  1 At s          
   142    16.762758 -12.118296  1 At s                145   -15.671623  11.329482  1 At s          
   146     9.336143  -6.749376  1 At s                141    -6.604052   4.774266  1 At s          
   147    -4.484290   3.241827  1 At s                148     2.149637  -1.554036  1 At s          
   140     1.918982  -1.387289  1 At s                149    -1.025445   0.741325  1 At s          

 Vector  261  Occ=0.000000D+00  E= 4.986467D+03
              MO Center= -2.9D-16,  2.0D-16, -5.9D-17, r^2= 9.6D-04
  Bfn.         Coefficient        Function           Bfn.         Coefficient        Function  
  ----     -------------------  ------------         ----     -------------------  ------------
   167    -2.678609  -1.725422  1 At pz                30     1.725417  -2.678608  1 At py         
    29     2.678602   1.725423  1 At px               164     2.560212   1.649157  1 At pz         
    27    -1.649152   2.560212  1 At py                26    -2.560206  -1.649158  1 At px         
   170     1.731181   1.115138  1 At pz                33    -1.115135   1.731181  1 At py         
    32    -1.731177  -1.115139  1 At px               161    -1.330464  -0.857016  1 At pz         

 Vector  262  Occ=0.000000D+00  E= 4.986467D+03
              MO Center= -2.0D-17,  5.1D-18,  2.2D-17, r^2= 5.8D-05
  Bfn.         Coefficient        Function           Bfn.         Coefficient        Function  
  ----     -------------------  ------------         ----     -------------------  ------------
    31     0.712135   3.105622  1 At pz               166    -3.105620   0.712130  1 At py         
   165     0.712138   3.105616  1 At px                28    -0.680658  -2.968352  1 At pz         
   163     2.968349  -0.680653  1 At py               162    -0.680661  -2.968346  1 At px         
    34    -0.460252  -2.007160  1 At pz               169     2.007158  -0.460249  1 At py         
   168    -0.460254  -2.007156  1 At px                25     0.353717   1.542561  1 At pz         

 Vector  263  Occ=0.000000D+00  E= 5.034417D+03
              MO Center= -9.0D-17, -4.2D-16,  6.5D-17, r^2= 5.6D-04
  Bfn.         Coefficient        Function           Bfn.         Coefficient        Function  
  ----     -------------------  ------------         ----     -------------------  ------------
   167     3.888950  -0.001826  1 At pz               164    -3.717574   0.001746  1 At pz         
    30    -1.895681  -2.381408  1 At py                27     1.812143   2.276465  1 At py         
   170    -2.513164   0.001180  1 At pz                29     1.507542   1.893855  1 At px         
    26    -1.441109  -1.810398  1 At px                33     1.225050   1.538942  1 At py         
   161     1.932245  -0.000907  1 At pz                32    -0.974222  -1.223870  1 At px         

 Vector  264  Occ=0.000000D+00  E= 5.034417D+03
              MO Center= -9.1D-17, -3.0D-17,  2.0D-16, r^2= 5.6D-04
  Bfn.         Coefficient        Function           Bfn.         Coefficient        Function  
  ----     -------------------  ------------         ----     -------------------  ------------
    31    -2.420200  -3.044109  1 At pz                28     2.313547   2.909963  1 At pz         
   166    -3.043796  -0.000414  1 At py               163     2.909663   0.000395  1 At py         
    34     1.564011   1.967201  1 At pz               165     2.420613   0.000314  1 At px         
   162    -2.313943  -0.000300  1 At px               169     1.966998   0.000267  1 At py         
    25    -1.202489  -1.512481  1 At pz               168    -1.564278  -0.000203  1 At px         

 Vector  265  Occ=0.000000D+00  E= 5.034417D+03
              MO Center= -2.4D-16, -3.3D-16,  3.8D-17, r^2= 5.0D-04
  Bfn.         Coefficient        Function           Bfn.         Coefficient        Function  
  ----     -------------------  ------------         ----     -------------------  ------------
    29    -1.817219  -3.294079  1 At px                26     1.737139   3.148916  1 At px         
    30     1.385688  -2.977266  1 At py                27    -1.324624   2.846065  1 At py         
    32     1.174345   2.128740  1 At px               167     1.160036  -1.908374  1 At pz         
   164    -1.108916   1.824277  1 At pz                33    -0.895476   1.924005  1 At py         
    23    -0.902895  -1.636679  1 At px                24     0.688486  -1.479269  1 At py         

 Vector  266  Occ=0.000000D+00  E= 5.034417D+03
              MO Center=  8.0D-19,  7.5D-18,  1.9D-16, r^2= 4.7D-04
  Bfn.         Coefficient        Function           Bfn.         Coefficient        Function  
  ----     -------------------  ------------         ----     -------------------  ------------
   165     1.415945   3.485448  1 At px               162    -1.353548  -3.331852  1 At px         
   166     3.185720   0.797153  1 At py               163    -3.045333  -0.762024  1 At py         
   168    -0.915029  -2.252408  1 At px                31    -2.213078  -0.299725  1 At pz         
    28     2.115553   0.286517  1 At pz               169    -2.058715  -0.515146  1 At py         
   159     0.703519   1.731762  1 At px               160     1.582841   0.396069  1 At py         

 Vector  267  Occ=0.000000D+00  E= 1.543426D+04
              MO Center=  1.3D-17, -2.2D-17, -1.2D-16, r^2= 3.0D-04
  Bfn.         Coefficient        Function           Bfn.         Coefficient        Function  
  ----     -------------------  ------------         ----     -------------------  ------------
     7    -7.099238 -11.406552  1 At s                  8     6.672861  10.721480  1 At s          
     6     5.151262   8.276682  1 At s                  9    -4.937546  -7.933299  1 At s          
    10     2.954862   4.747663  1 At s                  5    -2.004896  -3.221324  1 At s          
    11    -1.424578  -2.288911  1 At s                  3    -1.077559  -1.731345  1 At s          
    12     0.684517   1.099833  1 At s                  4     0.602062   0.967350  1 At s          

 Vector  268  Occ=0.000000D+00  E= 1.543426D+04
              MO Center=  3.9D-20, -6.0D-20, -3.4D-19, r^2= 8.3D-07
  Bfn.         Coefficient        Function           Bfn.         Coefficient        Function  
  ----     -------------------  ------------         ----     -------------------  ------------
   143   -10.219172   8.722220  1 At s                144     9.605414  -8.198367  1 At s          
   142     7.415110  -6.328910  1 At s                145    -7.107473   6.066336  1 At s          
   146     4.253449  -3.630384  1 At s                141    -2.885996   2.463242  1 At s          
   147    -2.050644   1.750256  1 At s                139    -1.551119   1.323903  1 At s          
   148     0.985344  -0.841006  1 At s                140     0.866653  -0.739701  1 At s          

 Vector  269  Occ=0.000000D+00  E= 8.583927D+04
              MO Center=  6.8D-18, -1.4D-17, -5.7D-17, r^2= 1.3D-04
  Bfn.         Coefficient        Function           Bfn.         Coefficient        Function  
  ----     -------------------  ------------         ----     -------------------  ------------
     7     4.605361   3.411876  1 At s                  8    -4.342558  -3.217179  1 At s          
     6    -3.326644  -2.464540  1 At s                  9     3.220829   2.386147  1 At s          
    10    -1.930481  -1.430194  1 At s                143    -1.303750   1.839925  1 At s          
   144     1.229352  -1.734931  1 At s                142     0.941753  -1.329055  1 At s          
     5     1.286502   0.953104  1 At s                145    -0.911798   1.286780  1 At s          

 Vector  270  Occ=0.000000D+00  E= 8.583927D+04
              MO Center=  6.1D-19, -1.3D-18, -5.1D-18, r^2= 1.2D-05
  Bfn.         Coefficient        Function           Bfn.         Coefficient        Function  
  ----     -------------------  ------------         ----     -------------------  ------------
   143    -4.453756   3.607534  1 At s                144     4.199605  -3.401672  1 At s          
   142     3.217133  -2.605872  1 At s                145    -3.114802   2.522984  1 At s          
   146     1.866931  -1.512210  1 At s                  7    -1.381975  -1.781919  1 At s          
     8     1.303113   1.680235  1 At s                  6     0.998258   1.287154  1 At s          
   141    -1.244152   1.007761  1 At s                  9    -0.966505  -1.246212  1 At s          

 Vector  271  Occ=0.000000D+00  E= 1.221513D+06
              MO Center=  9.7D-19, -2.0D-18, -8.3D-18, r^2= 2.0D-05
  Bfn.         Coefficient        Function           Bfn.         Coefficient        Function  
  ----     -------------------  ------------         ----     -------------------  ------------
     7     1.761092   1.846827  1 At s                  8    -1.662077  -1.742992  1 At s          
     6    -1.270436  -1.332284  1 At s                  9     1.233530   1.293582  1 At s          
     1     0.797462   0.836285  1 At s                 10    -0.739646  -0.775654  1 At s          
     5     0.490349   0.514221  1 At s                143    -0.474637   0.511705  1 At s          
   144     0.447951  -0.482935  1 At s                  2    -0.379027  -0.397479  1 At s          

 Vector  272  Occ=0.000000D+00  E= 1.221513D+06
              MO Center=  5.4D-20, -1.1D-19, -4.6D-19, r^2= 1.1D-06
  Bfn.         Coefficient        Function           Bfn.         Coefficient        Function  
  ----     -------------------  ------------         ----     -------------------  ------------
   143    -1.956420   1.638487  1 At s                144     1.846422  -1.546365  1 At s          
   142     1.411343  -1.181990  1 At s                145    -1.370345   1.147653  1 At s          
   137    -0.885911   0.741944  1 At s                146     0.821682  -0.688153  1 At s          
   141    -0.544735   0.456212  1 At s                  7    -0.414489  -0.561534  1 At s          
     8     0.391185   0.529963  1 At s                138     0.421066  -0.352639  1 At s          


   alpha - beta orbital overlaps 
   ----------------------------- 


   alpha      1      2      3      4      5      6      7      8      9     10
    beta      9      9      9      9      9      9      9      9      9      9
 overlap   0.000  0.000  0.000  0.001  0.046  0.179  0.320  0.757  3.612  1.855


   alpha     11     12     13     14     15     16     17     18     19     20
    beta      9      9      9     14      9     14     35     36     37     35
 overlap   1.318  1.494  0.317  0.368  0.352  0.038  0.000  0.000  0.000  0.001


   alpha     21     22     23     24     25     26     27     28     29     30
    beta     36     37     35     36     37     35     36     37     35     36
 overlap   0.001  0.001  0.012  0.012  0.012  0.055  0.054  0.053  0.098  0.095


   alpha     31     32     33     34     35     36     37     38     39     40
    beta     37     35     36     37     35     36     37     35     36     37
 overlap   0.096  0.175  0.173  0.165  0.352  0.346  0.336  0.298  0.292  0.280


   alpha     41     42     43     44     45     46     47     48     49     50
    beta     35     36     37     47     48     49     47     48     49     47
 overlap   0.169  0.167  0.159  0.111  0.096  0.081  0.170  0.148  0.111  0.127


   alpha     51     52     53     54     55     56     57     58     59     60
    beta     48     49     47     48     49     91     92     93     94     95
 overlap   0.109  0.072  0.033  0.028  0.015  0.000  0.000  0.000  0.000  0.000


   alpha     61     62     63     64     65     66     67     68     69     70
    beta     91     92     93     94     95     91     92     93     94     95
 overlap   0.000  0.000  0.000  0.000  0.000  0.002  0.002  0.002  0.002  0.002


   alpha     71     72     73     74     75     76     77     78     79     80
    beta     91     92     93     94     95     91     92     93     94     95
 overlap   0.016  0.016  0.016  0.016  0.016  0.010  0.010  0.010  0.010  0.010


   alpha     81     82     83     84     85     86     87     88     89     90
    beta     91     92     93     94     95     91     92     93     94     95
 overlap   0.096  0.096  0.096  0.096  0.096  0.094  0.094  0.094  0.094  0.094


   alpha     91     92     93     94     95     96     97     98     99    100
    beta     91     92     93     94     95     91     92     93     94     95
 overlap   0.111  0.111  0.111  0.111  0.111  0.060  0.060  0.060  0.060  0.060


   alpha    101    102    103    104    105    106    107    108    109    110
    beta     91     92     93     94     95      9     92      9     94     95
 overlap   0.028  0.027  0.027  0.027  0.028  0.005  0.003  0.009  0.003  0.004


   alpha    111    112    113    114    115    116    117    118    119    120
    beta     91     92      9     94     95     47     49     48     49     47
 overlap   0.001  0.001  0.005  0.001  0.001  0.002  0.002  0.001  0.002  0.001


   alpha    121    122    123    124    125    126    127    128    129    130
    beta     49     48     47     49     48     49     47     49     48     47
 overlap   0.000  0.002  0.001  0.001  0.001  0.001  0.001  0.000  0.001  0.004


   alpha    131    132    133    134    135    136
    beta     49     48     49     47     49     48
 overlap   0.004  0.002  0.003  0.002  0.001  0.003

     --------------------------
     Expectation value of S2:  
     --------------------------
      <S2> =      0.8277 (Exact =     0.7500)


 Parallel integral file used     111 records with       0 large values


 Task  times  cpu:       20.4s     wall:       21.2s
 Summary of allocated global arrays
-----------------------------------
  No active global arrays



                         GA Statistics for process    0
                         ------------------------------

       create   destroy   get      put      acc     scatter   gather  read&inc
calls: 4006     4006     7.74e+04 7.18e+04 1.63e+05    0        0     7594     
number of processes/call 1.00e+00 1.00e+00 1.00e+00 0.00e+00 0.00e+00
bytes total:             7.59e+08 1.66e+09 9.10e+07 0.00e+00 0.00e+00 6.08e+04
bytes remote:            0.00e+00 0.00e+00 0.00e+00 0.00e+00 0.00e+00 0.00e+00
Max memory consumed for GA by this process: 45426176 bytes
MA_summarize_allocated_blocks: starting scan ...
MA_summarize_allocated_blocks: scan completed: 0 heap blocks, 0 stack blocks
MA usage statistics:

	allocation statistics:
					      heap	     stack
					      ----	     -----
	current number of blocks	         0	         0
	maximum number of blocks	        45	        23
	current total bytes		         0	         0
	maximum total bytes		 705347208	  30151480
	maximum total K-bytes		    705348	     30152
	maximum total M-bytes		       706	        31


                                NWChem Input Module
                                -------------------





                                     CITATION
                                     --------
                Please cite the following reference when publishing
                           results obtained with NWChem:

                 M. Valiev, E.J. Bylaska, N. Govind, K. Kowalski,
              T.P. Straatsma, H.J.J. van Dam, D. Wang, J. Nieplocha,
                        E. Apra, T.L. Windus, W.A. de Jong
                 "NWChem: a comprehensive and scalable open-source
                  solution for large scale molecular simulations"
                      Comput. Phys. Commun. 181, 1477 (2010)
                           doi:10.1016/j.cpc.2010.04.018

                                      AUTHORS
                                      -------
          E. Apra, E. J. Bylaska, W. A. de Jong, N. Govind, K. Kowalski,
       T. P. Straatsma, M. Valiev, H. J. J. van Dam, D. Wang, T. L. Windus,
        J. Hammond, J. Autschbach, K. Bhaskaran-Nair, J. Brabec, K. Lopata,
    S. A. Fischer, S. Krishnamoorthy, M. Jacquelin, W. Ma, M. Klemm, O. Villa,
      Y. Chen, V. Anisimov, F. Aquino, S. Hirata, M. T. Hackler, V. Konjkov,
            D. Mejia-Rodriguez, T. Risthaus, M. Malagoli, A. Marenich,
   A. Otero-de-la-Roza, J. Mullin, P. Nichols, R. Peverati, J. Pittner, Y. Zhao,
        P.-D. Fan, A. Fonari, M. J. Williamson, R. J. Harrison, J. R. Rehr,
      M. Dupuis, D. Silverstein, D. M. A. Smith, J. Nieplocha, V. Tipparaju,
    M. Krishnan, B. E. Van Kuiken, A. Vazquez-Mayagoitia, L. Jensen, M. Swart,
      Q. Wu, T. Van Voorhis, A. A. Auer, M. Nooijen, L. D. Crosby, E. Brown,
      G. Cisneros, G. I. Fann, H. Fruchtl, J. Garza, K. Hirao, R. A. Kendall,
      J. A. Nichols, K. Tsemekhman, K. Wolinski, J. Anchell, D. E. Bernholdt,
      P. Borowski, T. Clark, D. Clerc, H. Dachsel, M. J. O. Deegan, K. Dyall,
    D. Elwood, E. Glendening, M. Gutowski, A. C. Hess, J. Jaffe, B. G. Johnson,
     J. Ju, R. Kobayashi, R. Kutteh, Z. Lin, R. Littlefield, X. Long, B. Meng,
      T. Nakajima, S. Niu, L. Pollack, M. Rosing, K. Glaesemann, G. Sandrone,
      M. Stave, H. Taylor, G. Thomas, J. H. van Lenthe, A. T. Wong, Z. Zhang.

 Total times  cpu:       20.4s     wall:       22.0s
