 argument  1 = at_ugbs_gatchina_hf.nw
                                         
                                         


              Northwest Computational Chemistry Package (NWChem) 6.8
              ------------------------------------------------------


                    Environmental Molecular Sciences Laboratory
                       Pacific Northwest National Laboratory
                                Richland, WA 99352

                              Copyright (c) 1994-2018
                       Pacific Northwest National Laboratory
                            Battelle Memorial Institute

             NWChem is an open-source computational chemistry package
                        distributed under the terms of the
                      Educational Community License (ECL) 2.0
             A copy of the license is included with this distribution
                              in the LICENSE.TXT file

                                  ACKNOWLEDGMENT
                                  --------------

            This software and its documentation were developed at the
            EMSL at Pacific Northwest National Laboratory, a multiprogram
            national laboratory, operated for the U.S. Department of Energy
            by Battelle under Contract Number DE-AC05-76RL01830. Support
            for this work was provided by the Department of Energy Office
            of Biological and Environmental Research, Office of Basic
            Energy Sciences, and the Office of Advanced Scientific Computing.


           Job information
           ---------------

    hostname        = r03n26.localdomain.hpc.udel.edu
    program         = nwchem
    date            = Mon Jul  6 12:46:39 2020

    compiled        = Mon_Jun_22_16:48:09_2020
    source          = /opt/shared/nwchem/6.8.1/src
    nwchem branch   = Development
    nwchem revision = N/A
    ga revision     = 5.6.5
    use scalapack   = F
    input           = at_ugbs_gatchina_hf.nw
    prefix          = at_ugbs_gatchina_hf.
    data base       = /work/akanane/users/akanane/Relativistic/basis/ref_data/at_ugbs_gatchina_hf.db
    status          = startup
    nproc           =        1
    time left       =     -1s



           Memory information
           ------------------

    heap     = 1048575996 doubles =   8000.0 Mbytes
    stack    = 1048576001 doubles =   8000.0 Mbytes
    global   = 2097152000 doubles =  16000.0 Mbytes (distinct from heap & stack)
    total    = 4194303997 doubles =  32000.0 Mbytes
    verify   = yes
    hardfail = no 


           Directory information
           ---------------------

  0 permanent = /work/akanane/users/akanane/Relativistic/basis/ref_data
  0 scratch   = /lustre/scratch/akanane/nwchem




                                NWChem Input Module
                                -------------------


                                        At
                                        --

 Scaling coordinates for geometry "geometry" by  1.889725989
 (inverse scale =  0.529177249)



                             Geometry "geometry" -> ""
                             -------------------------

 Output coordinates in angstroms (scale by  1.889725989 to convert to a.u.)

  No.       Tag          Charge          X              Y              Z
 ---- ---------------- ---------- -------------- -------------- --------------
    1 At                  85.0000     0.00000000     0.00000000     0.00000000

      Atomic Mass 
      ----------- 

      At               210.987500


 Effective nuclear repulsion energy (a.u.)       0.0000000000

            Nuclear Dipole moment (a.u.) 
            ----------------------------
        X                 Y               Z
 ---------------- ---------------- ----------------
     0.0000000000     0.0000000000     0.0000000000


            XYZ format geometry
            -------------------
     1
 geometry
 At                    0.00000000     0.00000000     0.00000000

  library name resolved from: environment
  library file name is: </opt/shared/nwchem/6.8.1/data/libraries/>
  
                      Basis "ao basis" -> "" (cartesian)
                      -----
  At (Astatine)
  -------------
            Exponent  Coefficients 
       -------------- ---------------------------------------------------------
  1 S  8.54976972E+07  1.000000

  2 S  4.36624927E+07  1.000000

  3 S  2.22978317E+07  1.000000

  4 S  1.13871946E+07  1.000000

  5 S  5.81528294E+06  1.000000

  6 S  2.96978465E+06  1.000000

  7 S  1.51662799E+06  1.000000

  8 S  7.74520959E+05  1.000000

  9 S  3.95537153E+05  1.000000

 10 S  2.01995359E+05  1.000000

 11 S  1.03156239E+05  1.000000

 12 S  5.26804659E+04  1.000000

 13 S  2.69031861E+04  1.000000

 14 S  1.37390854E+04  1.000000

 15 S  7.01636109E+03  1.000000

 16 S  3.58315867E+03  1.000000

 17 S  1.82986962E+03  1.000000

 18 S  9.34489135E+02  1.000000

 19 S  4.77230690E+02  1.000000

 20 S  2.43715119E+02  1.000000

 21 S  1.24461944E+02  1.000000

 22 S  6.35609953E+01  1.000000

 23 S  3.24597221E+01  1.000000

 24 S  1.65767316E+01  1.000000

 25 S  8.46550778E+00  1.000000

 26 S  4.32321786E+00  1.000000

 27 S  2.20780763E+00  1.000000

 28 S  1.12749685E+00  1.000000

 29 S  5.75797064E-01  1.000000

 30 S  2.94051605E-01  1.000000

 31 S  1.50168092E-01  1.000000

 32 S  7.66887697E-02  1.000000

 33 P  3.95537153E+05  1.000000

 34 P  2.01995359E+05  1.000000

 35 P  1.03156239E+05  1.000000

 36 P  5.26804659E+04  1.000000

 37 P  2.69031861E+04  1.000000

 38 P  1.37390854E+04  1.000000

 39 P  7.01636109E+03  1.000000

 40 P  3.58315867E+03  1.000000

 41 P  1.82986962E+03  1.000000

 42 P  9.34489135E+02  1.000000

 43 P  4.77230690E+02  1.000000

 44 P  2.43715119E+02  1.000000

 45 P  1.24461944E+02  1.000000

 46 P  6.35609953E+01  1.000000

 47 P  3.24597221E+01  1.000000

 48 P  1.65767316E+01  1.000000

 49 P  8.46550778E+00  1.000000

 50 P  4.32321786E+00  1.000000

 51 P  2.20780763E+00  1.000000

 52 P  1.12749685E+00  1.000000

 53 P  5.75797064E-01  1.000000

 54 P  2.94051605E-01  1.000000

 55 P  1.50168092E-01  1.000000

 56 P  7.66887697E-02  1.000000

 57 D  1.37390854E+04  1.000000

 58 D  7.01636109E+03  1.000000

 59 D  3.58315867E+03  1.000000

 60 D  1.82986962E+03  1.000000

 61 D  9.34489135E+02  1.000000

 62 D  4.77230690E+02  1.000000

 63 D  2.43715119E+02  1.000000

 64 D  1.24461944E+02  1.000000

 65 D  6.35609953E+01  1.000000

 66 D  3.24597221E+01  1.000000

 67 D  1.65767316E+01  1.000000

 68 D  8.46550778E+00  1.000000

 69 D  4.32321786E+00  1.000000

 70 D  2.20780763E+00  1.000000

 71 D  1.12749685E+00  1.000000

 72 D  5.75797064E-01  1.000000

 73 D  2.94051605E-01  1.000000

 74 D  1.50168092E-01  1.000000

 75 F  1.82986962E+03  1.000000

 76 F  9.34489135E+02  1.000000

 77 F  4.77230690E+02  1.000000

 78 F  2.43715119E+02  1.000000

 79 F  1.24461944E+02  1.000000

 80 F  6.35609953E+01  1.000000

 81 F  3.24597221E+01  1.000000

 82 F  1.65767316E+01  1.000000

 83 F  8.46550778E+00  1.000000

 84 F  4.32321786E+00  1.000000

 85 F  2.20780763E+00  1.000000

 86 F  1.12749685E+00  1.000000

 87 F  5.75797064E-01  1.000000



 Summary of "ao basis" -> "" (cartesian)
 ------------------------------------------------------------------------------
       Tag                 Description            Shells   Functions and Types
 ---------------- ------------------------------  ------  ---------------------
 At                      user specified             87      342   32s24p18d13f


  library name resolved from: environment
  library file name is: </opt/shared/nwchem/6.8.1/data/libraries/>
  
                 ECP       "ecp basis" -> "" (cartesian)
                -----
  At (Astatine) Replaces    60 electrons
  --------------------------------------
             Channel    R-exponent     Exponent     Coefficients
         ------------ ---------------------------------------------------------
  1 U L       Both         0.00      525.754846      -0.173059
  1 U L       Both         1.00     2395.715850      -2.276906
  1 U L       Both         1.00      278.392187      -3.857969
  1 U L       Both         1.00       61.458962     -36.770662
  1 U L       Both         1.00       44.129376      37.601009
  1 U L       Both         1.00       31.359815     -23.238699
  1 U L       Both         1.00       11.620573     -16.176532
  1 U L       Both         1.00        4.446625      -3.261971
  1 U L       Both         1.00        2.935632       0.180132
  1 U L       Both         1.00        1.910251      -0.146253
  1 U L       Both         1.00        0.178868      -0.000306
  1 U L       Both         1.00        0.018768      -0.000022
  1 U L       Both         1.00        0.009761      -0.000001

  2 U-s       Both         0.00       78.594234      10.173059
  2 U-s       Both         1.00       20.707609      53.132769
  2 U-s       Both         2.00       45.167107     915.704248
  2 U-s       Both         2.00       30.243749   -1411.543382
  2 U-s       Both         2.00       20.306371    1849.067583
  2 U-s       Both         2.00       13.560689   -1518.357864
  2 U-s       Both         2.00        8.557058    1106.328043
  2 U-s       Both         2.00        5.419636    -461.892244
  2 U-s       Both         2.00        3.516909     198.105995
  2 U-s       Both         2.00        2.287714     -81.896353
  2 U-s       Both         2.00        1.492833      32.227905
  2 U-s       Both         2.00        0.974359     -11.458592
  2 U-s       Both         2.00        0.633560       3.370887
  2 U-s       Both         2.00        0.410317      -0.726005
  2 U-s       Both         2.00        0.263860       0.084087

  3 U-p       Both         0.00       77.044856       9.173059
  3 U-p       Both         1.00      208.029432     -11.921411
  3 U-p       Both         1.00       28.036479      67.690912
  3 U-p       Both         2.00       39.868030     362.644345
  3 U-p       Both         2.00       26.002305    -582.208229
  3 U-p       Both         2.00       15.965542    1135.430155
  3 U-p       Both         2.00       11.089072   -1255.187511
  3 U-p       Both         2.00        8.084023     873.528658
  3 U-p       Both         2.00        5.150690    -147.543640
  3 U-p       Both         2.00        2.818771      20.737280
  3 U-p       Both         2.00        1.590819      -4.949674
  3 U-p       Both         2.00        0.878982       1.224799
  3 U-p       Both         2.00        0.479414      -0.318322
  3 U-p       Both         2.00        0.264399       0.075196
  3 U-p       Both         2.00        0.157424      -0.011770

  4 U-d       Both         0.00       30.117728       7.173059
  4 U-d       Both         1.00        9.540744     223.203571
  4 U-d       Both         1.00        5.932081    -532.676982
  4 U-d       Both         1.00        3.279986     364.117347
  4 U-d       Both         2.00        6.384402     470.098427
  4 U-d       Both         2.00        3.591978    -476.290215
  4 U-d       Both         2.00        1.790367       1.447964
  4 U-d       Both         2.00        0.921766      -0.463077
  4 U-d       Both         2.00        0.485962       0.163733
  4 U-d       Both         2.00        0.266420      -0.069600
  4 U-d       Both         2.00        0.150370       0.031881
  4 U-d       Both         2.00        0.090090      -0.013071
  4 U-d       Both         2.00        0.051240       0.003831
  4 U-d       Both         2.00        0.029281      -0.000895
  4 U-d       Both         2.00        0.016722       0.000119

  5 U-f       Both         0.00        0.891112       4.173059
  5 U-f       Both         1.00       18.356496      62.551914
  5 U-f       Both         2.00    32873.554569    1035.415119
  5 U-f       Both         2.00     3063.446789     192.725071
  5 U-f       Both         2.00       31.894642    -183.984679
  5 U-f       Both         2.00        4.214026      69.570454
  5 U-f       Both         2.00        1.887936    -131.986631
  5 U-f       Both         2.00        1.332761     223.444177
  5 U-f       Both         2.00        0.873304    -167.865396
  5 U-f       Both         2.00        0.632167      71.630825
  5 U-f       Both         2.00        0.438045     -11.215886
  5 U-f       Both         2.00        0.261926       0.470906
  5 U-f       Both         2.00        0.174510       0.000847

  library name resolved from: environment
  library file name is: </opt/shared/nwchem/6.8.1/data/libraries/>
  

 **** WARNING Zero Coefficient **** on atom "              At"
 angular momentum value: 1  standard basis set name: "user specified"
 input line that generated warning:
   288: 0	7.704485637704510E+01		0.000000000000000E+00
  

 **** WARNING Zero Coefficient **** on atom "              At"
 angular momentum value: 2  standard basis set name: "user specified"
 input line that generated warning:
   304: 0	3.011772828438610E+01		0.000000000000000E+00
  

 **** WARNING Zero Coefficient **** on atom "              At"
 angular momentum value: 3  standard basis set name: "user specified"
 input line that generated warning:
   320: 0	8.911119625038520E-01		0.000000000000000E+00
  

 **** WARNING Zero Coefficient **** on atom "              At"
 angular momentum value: 4  standard basis set name: "user specified"
 input line that generated warning:
   334: 0	5.257548462769590E+02		0.000000000000000E+00
  
             SO Potential "so potential" -> ""
                      -----
  At (Astatine)
  -------------
          R-exponent    Exponent     Coefficients 
         ------------ ------------------------------------------------------------
  1 U-p      1.00      208.029432       2.561177
  1 U-p      1.00       28.036479      -1.650544
  1 U-p      2.00       39.868030      77.307362
  1 U-p      2.00       26.002305    -118.585980
  1 U-p      2.00       15.965542     138.579485
  1 U-p      2.00       11.089072     -52.715330
  1 U-p      2.00        8.084023     -58.916702
  1 U-p      2.00        5.150690      62.873440
  1 U-p      2.00        2.818771     -15.889430
  1 U-p      2.00        1.590819       4.843922
  1 U-p      2.00        0.878982      -1.405982
  1 U-p      2.00        0.479414       0.390801
  1 U-p      2.00        0.264399      -0.095951
  1 U-p      2.00        0.157424       0.015456

  2 U-d      1.00        9.540744       1.612834
  2 U-d      1.00        5.932081      -1.350383
  2 U-d      1.00        3.279986      -0.287663
  2 U-d      2.00        6.384402      -1.664264
  2 U-d      2.00        3.591978       4.036069
  2 U-d      2.00        1.790367      -0.890782
  2 U-d      2.00        0.921766       0.301059
  2 U-d      2.00        0.485962      -0.123316
  2 U-d      2.00        0.266420       0.057045
  2 U-d      2.00        0.150370      -0.027051
  2 U-d      2.00        0.090090       0.011366
  2 U-d      2.00        0.051240      -0.003367
  2 U-d      2.00        0.029281       0.000795
  2 U-d      2.00        0.016722      -0.000104

  3 U-f      1.00       18.356496      -0.000643
  3 U-f      2.00    32873.554569       0.834481
  3 U-f      2.00     3063.446789       0.273486
  3 U-f      2.00       31.894642       0.160633
  3 U-f      2.00        4.214026      -0.068824
  3 U-f      2.00        1.887936       0.022494
  3 U-f      2.00        1.332761      -0.174753
  3 U-f      2.00        0.873304       0.160803
  3 U-f      2.00        0.632167       0.036072
  3 U-f      2.00        0.438045      -0.065269
  3 U-f      2.00        0.261926       0.016437
  3 U-f      2.00        0.174510      -0.002626

  4 U-g      1.00     2395.715850      -1.527919
  4 U-g      1.00      278.392187      -3.033005
  4 U-g      1.00       61.458962       2.574144
  4 U-g      1.00       44.129376      -2.630667
  4 U-g      1.00       31.359815       1.110494
  4 U-g      1.00       11.620573      -0.051219
  4 U-g      1.00        4.446625       0.042132
  4 U-g      1.00        2.935632      -0.036158
  4 U-g      1.00        1.910251       0.008870
  4 U-g      1.00        0.178868       0.000099
  4 U-g      1.00        0.018768       0.000004
  4 U-g      1.00        0.009761      -0.000000

  xc_inp: hfexch multiplicative factor not found.

                                 NWChem DFT Module
                                 -----------------


                                        At




 Summary of "ao basis" -> "ao basis" (cartesian)
 ------------------------------------------------------------------------------
       Tag                 Description            Shells   Functions and Types
 ---------------- ------------------------------  ------  ---------------------
 At                      user specified             87      342   32s24p18d13f


  int_init: internal texas instability possible cando_txs set to always be  F
  Caching 1-el integrals 

            General Information
            -------------------
          SCF calculation type: DFT
          Wavefunction type:  spin polarized.
          No. of atoms     :     1
          No. of electrons :    25
           Alpha electrons :    13
            Beta electrons :    12
          Charge           :     0
          Spin multiplicity:     2
          Use of symmetry is: off; symmetry adaption is: off
          Maximum number of iterations: 100
          AO basis - number of functions:   342
                     number of shells:    87
          Convergence on energy requested:  1.00D-07
          Convergence on density requested:  1.00D-06
          Convergence on gradient requested:  1.50D-06

              XC Information
              --------------
                     Hartree-Fock (Exact) Exchange  1.000          

          Convergence Information
          -----------------------
          Convergence aids based upon iterative change in 
          total energy or number of iterations. 
          Levelshifting, if invoked, occurs when the 
          HOMO/LUMO gap drops below (HL_TOL):  1.00D-02
          DIIS, if invoked, will attempt to extrapolate 
          using up to (NFOCK): 10 stored Fock matrices.

                    Damping( 0%)  Levelshifting(0.5)       DIIS
                  --------------- ------------------- ---------------
          dE  on:    start            ASAP                start   
          dE off:    2 iters        100 iters           100 iters 


      Screening Tolerance Information
      -------------------------------
          Density screening/tol_rho:  1.00D-10
          AO Gaussian exp screening on grid/accAOfunc:  16
          CD Gaussian exp screening on grid/accCDfunc:  20
          XC Gaussian exp screening on grid/accXCfunc:  20
          Schwarz screening/accCoul:  1.00D-10

 Performing spin-orbit DFT (SO-DFT) calculations
 -----------------------------------------------


 Forcing the number of linearly dependent vectors to be  0

      Superposition of Atomic Density Guess
      -------------------------------------

 Sum of atomic energies:        -302.63700534

      Non-variational initial energy
      ------------------------------

 Total energy =    -261.452836
 1-e energy   =    -454.435423
 2-e energy   =     192.982587
 HOMO         =      -0.323380
 LUMO         =      -0.323380

   Time prior to 1st pass:     39.2

 Integral file          = /lustre/scratch/akanane/nwchem/at_ugbs_gatchina_hf.aoints.0
 Record size in doubles =    65536    No. of integs per rec  =    32766
 Max. records in memory =        0    Max. records in file   = ********
 No. of bits per label  =       16    No. of bits per value  =       64


 #quartets = 7.279D+06 #integrals = 2.311D+08 #direct =  0.0% #cached =100.0%


           Memory utilization after 1st SCF pass: 
           Heap Space remaining (MW):     1048.55          1048554652
          Stack Space remaining (MW):     1047.63          1047631300

   convergence    iter        energy       DeltaE   RMS-Dens  Diis-err    time
 ---------------- ----- ----------------- --------- --------- ---------  ------
 d= 0,ls=0.0,diis     1    -88.1743588775 -8.82D+01  2.68D+05  7.44D+05   216.0
                                                     2.68D+05  7.44D+05
 d= 0,ls=0.0,diis     2   -238.4178364495 -1.50D+02  2.42D+04  7.92D+03   240.8
                                                     2.42D+04  7.92D+03
 d= 0,ls=0.0,diis     3   -261.9186377252 -2.35D+01  3.39D-03  1.18D-01   265.2
                                                     3.53D-03  1.18D-01
 d= 0,ls=0.0,diis     4   -261.9480944216 -2.95D-02  1.35D-03  2.99D-02   289.6
                                                     1.78D-03  2.99D-02
 d= 0,ls=0.0,diis     5   -261.9526366698 -4.54D-03  7.44D-04  1.29D-03   314.0
                                                     9.55D-04  1.29D-03
 d= 0,ls=0.0,diis     6   -261.9543924634 -1.76D-03  6.05D-04  5.82D-04   338.4
                                                     7.04D-04  5.82D-04
 d= 0,ls=0.0,diis     7   -261.9559219569 -1.53D-03  2.93D-04  1.92D-04   362.8
                                                     3.15D-04  1.92D-04
 d= 0,ls=0.0,diis     8   -261.9566885176 -7.67D-04  1.34D-04  2.44D-05   387.3
                                                     1.88D-04  2.44D-05
 d= 0,ls=0.0,diis     9   -261.9567868919 -9.84D-05  3.74D-05  1.42D-05   411.7
                                                     4.28D-05  1.42D-05
 d= 0,ls=0.0,diis    10   -261.9568314307 -4.45D-05  1.36D-04  1.37D-05   436.2
                                                     1.36D-04  1.37D-05
 d= 0,ls=0.0,diis    11   -261.9569849208 -1.53D-04  6.26D-04  1.22D-05   460.7
                                                     4.62D-04  1.22D-05
 d= 0,ls=0.0,diis    12   -261.9574775110 -4.93D-04  7.40D-05  1.67D-05   485.2
                                                     5.03D-05  1.67D-05
 d= 0,ls=0.0,diis    13   -261.9574434227  3.41D-05  7.81D-04  1.09D-05   509.7
                                                     6.01D-04  1.09D-05
 d= 0,ls=0.0,diis    14   -261.9576898724 -2.46D-04  1.17D-04  1.11D-04   534.2
                                                     1.41D-04  1.11D-04
 d= 0,ls=0.0,diis    15   -261.9577119030 -2.20D-05  1.17D-04  4.99D-05   558.6
                                                     2.16D-04  4.99D-05
 d= 0,ls=0.0,diis    16   -261.9577504401 -3.85D-05  7.10D-05  1.34D-05   583.0
                                                     1.44D-04  1.34D-05
 d= 0,ls=0.0,diis    17   -261.9577607953 -1.04D-05  1.66D-05  1.13D-06   607.4
                                                     3.20D-05  1.13D-06
 d= 0,ls=0.0,diis    18   -261.9577635901 -2.79D-06  1.86D-05  7.76D-07   631.9
                                                     1.51D-05  7.76D-07
 d= 0,ls=0.0,diis    19   -261.9577675644 -3.97D-06  6.17D-05  7.55D-07   656.3
                                                     4.18D-05  7.55D-07
 d= 0,ls=0.0,diis    20   -261.9577796315 -1.21D-05  1.14D-04  7.21D-07   680.8
                                                     8.00D-05  7.21D-07
 d= 0,ls=0.0,diis    21   -261.9578015382 -2.19D-05  8.27D-05  7.01D-07   705.2
                                                     5.75D-05  7.01D-07
 d= 0,ls=0.0,diis    22   -261.9578162148 -1.47D-05  9.23D-05  6.54D-07   729.8
                                                     6.53D-05  6.54D-07
 d= 0,ls=0.0,diis    23   -261.9578321602 -1.59D-05  8.93D-05  6.52D-07   754.3
                                                     7.27D-05  6.52D-07
 d= 0,ls=0.0,diis    24   -261.9578483195 -1.62D-05  2.74D-05  6.70D-07   778.7
                                                     1.97D-05  6.70D-07
 d= 0,ls=0.0,diis    25   -261.9578520232 -3.70D-06  5.54D-06  6.37D-07   803.2
                                                     4.43D-06  6.37D-07
 d= 0,ls=0.0,diis    26   -261.9578527793 -7.56D-07  1.61D-05  6.34D-07   827.5
                                                     1.23D-05  6.34D-07
 d= 0,ls=0.0,diis    27   -261.9578554901 -2.71D-06  6.74D-05  6.33D-07   851.9
                                                     5.10D-05  6.33D-07
 d= 0,ls=0.0,diis    28   -261.9578667135 -1.12D-05  2.76D-04  6.06D-07   876.3
                                                     2.13D-04  6.06D-07
 d= 0,ls=0.0,diis    29   -261.9579098693 -4.32D-05  1.07D-04  4.74D-07   900.7
                                                     8.86D-05  4.74D-07
 d= 0,ls=0.0,diis    30   -261.9579263570 -1.65D-05  3.99D-04  3.71D-07   925.2
                                                     3.22D-04  3.71D-07
 d= 0,ls=0.0,diis    31   -261.9579668554 -4.05D-05  1.72D-04  1.09D-06   949.6
                                                     1.29D-04  1.09D-06
 d= 0,ls=0.0,diis    32   -261.9579560068  1.08D-05  5.34D-04  2.69D-07   974.0
                                                     4.17D-04  2.69D-07
 d= 0,ls=0.0,diis    33   -261.9579664898 -1.05D-05  1.67D-06  9.98D-06   998.4
                                                     1.80D-06  9.98D-06
 d= 0,ls=0.0,diis    34   -261.9579663998  9.00D-08  2.49D-05  1.01D-05  1022.7
                                                     1.80D-05  1.01D-05
 d= 0,ls=0.0,diis    35   -261.9579676253 -1.23D-06  2.71D-06  8.99D-06  1047.0
                                                     2.14D-06  8.99D-06
 d= 0,ls=0.0,diis    36   -261.9579677712 -1.46D-07  7.78D-06  8.79D-06  1071.4
                                                     5.41D-06  8.79D-06
 d= 0,ls=0.0,diis    37   -261.9579672327  5.38D-07  1.88D-05  9.36D-06  1095.8
                                                     8.41D-06  9.36D-06
 d= 0,ls=0.0,diis    38   -261.9579682789 -1.05D-06  2.33D-04  7.67D-06  1120.1
                                                     1.60D-04  7.67D-06
 d= 0,ls=0.0,diis    39   -261.9579736752 -5.40D-06  4.47D-05  9.89D-08  1144.5
                                                     4.13D-05  9.89D-08
 d= 0,ls=0.0,diis    40   -261.9579742763 -6.01D-07  1.09D-05  4.24D-08  1168.9
                                                     6.65D-06  4.24D-08
 d= 0,ls=0.0,diis    41   -261.9579742701  6.18D-09  3.33D-06  8.29D-09  1193.3
                                                     3.16D-06  8.29D-09
 d= 0,ls=0.0,diis    42   -261.9579743101 -4.00D-08  2.30D-06  6.87D-09  1217.6
                                                     1.57D-06  6.87D-09
 d= 0,ls=0.0,diis    43   -261.9579743462 -3.60D-08  3.80D-06  5.60D-09  1242.0
                                                     3.11D-06  5.60D-09
 d= 0,ls=0.0,diis    44   -261.9579744100 -6.38D-08  3.46D-06  4.12D-09  1266.3
                                                     3.40D-06  4.12D-09
 d= 0,ls=0.0,diis    45   -261.9579744854 -7.54D-08  3.89D-06  2.20D-09  1290.8
                                                     3.93D-06  2.20D-09
 d= 0,ls=0.0,diis    46   -261.9579745309 -4.55D-08  5.72D-06  1.12D-09  1315.1
                                                     5.62D-06  1.12D-09
 d= 0,ls=0.0,diis    47   -261.9579745493 -1.84D-08  2.70D-06  7.20D-10  1339.6
                                                     2.79D-06  7.20D-10
 d= 0,ls=0.0,diis    48   -261.9579745539 -4.55D-09  1.63D-06  6.35D-10  1364.0
                                                     1.28D-06  6.35D-10
 d= 0,ls=0.0,diis    49   -261.9579745554 -1.57D-09  1.71D-06  7.32D-10  1388.3
                                                     1.32D-06  7.32D-10
 d= 0,ls=0.0,diis    50   -261.9579745558 -3.09D-10  2.21D-06  6.67D-10  1412.8
                                                     7.35D-07  6.67D-10
 d= 0,ls=0.0,diis    51   -261.9579745562 -4.43D-10  2.26D-06  6.30D-10  1437.2
                                                     6.16D-07  6.30D-10
 d= 0,ls=0.0,diis    52   -261.9579745568 -6.37D-10  4.07D-07  7.13D-10  1461.6
                                                     6.51D-07  7.13D-10


      Total SO-DFT energy =     -261.957974556681
      One electron energy =     -455.046928661967
           Coulomb energy =      211.368399026048
    Exchange-Corr. energy =      -18.279444920762
 Nuclear repulsion energy =        0.000000000000

 Numeric. integr. density =        0.000000000000

     Total iterative time =   1446.5s



                       DFT Final Molecular Orbital Analysis
                       ------------------------------------

 Vector    1  Occ=1.000000D+00  E=-7.905552D+00
              MO Center= -4.4D-13, -6.1D-14,  6.7D-14, r^2= 1.8D-05
  Bfn.         Coefficient        Function           Bfn.         Coefficient        Function  
  ----     -------------------  ------------         ----     -------------------  ------------
   367    -1.110526   0.009325  1 At s                369     0.994873  -0.008354  1 At s          
   370     0.724485  -0.006083  1 At s                366    -0.598204   0.005023  1 At s          
    25     0.011635   0.578122  1 At s                 27    -0.010423  -0.517899  1 At s          
    28    -0.007590  -0.377137  1 At s                 24     0.006267   0.311417  1 At s          
   371     0.271531  -0.002280  1 At s                512     0.194107  -0.001633  1 At dzz        

 Vector    2  Occ=1.000000D+00  E=-7.905531D+00
              MO Center= -6.4D-13,  9.1D-14,  1.6D-14, r^2= 2.6D-05
  Bfn.         Coefficient        Function           Bfn.         Coefficient        Function  
  ----     -------------------  ------------         ----     -------------------  ------------
    25     0.014189  -1.110489  1 At s                 27    -0.012711   0.994802  1 At s          
    28    -0.009256   0.724430  1 At s                 24     0.007643  -0.598187  1 At s          
   367    -0.578056  -0.014166  1 At s                369     0.517853   0.012691  1 At s          
   370     0.377115   0.009242  1 At s                366    -0.311380  -0.007631  1 At s          
    29    -0.003469   0.271474  1 At s                168    -0.002484   0.194102  1 At dyy        

 Vector    3  Occ=1.000000D+00  E=-5.940006D+00
              MO Center=  4.7D-12, -5.0D-12, -1.2D-11, r^2= 1.7D-02
  Bfn.         Coefficient        Function           Bfn.         Coefficient        Function  
  ----     -------------------  ------------         ----     -------------------  ------------
    89     0.001659   0.325908  1 At pz               430    -0.325739   0.001912  1 At py         
   429     0.000915   0.324555  1 At px                92     0.001168   0.214183  1 At pz         
   433    -0.213990   0.001456  1 At py               432     0.000320   0.212638  1 At px         
    83    -0.000862  -0.186903  1 At pz               424     0.186899  -0.000867  1 At py         
   423    -0.000847  -0.186875  1 At px                88     0.000933  -0.174456  1 At py         

 Vector    4  Occ=1.000000D+00  E=-5.939999D+00
              MO Center=  1.4D-11, -1.7D-11, -4.2D-11, r^2= 5.9D-02
  Bfn.         Coefficient        Function           Bfn.         Coefficient        Function  
  ----     -------------------  ------------         ----     -------------------  ------------
   431     0.325913  -0.000221  1 At pz                88    -0.000032   0.325743  1 At py         
    87    -0.324552   0.000957  1 At px               434     0.214188  -0.000067  1 At pz         
    91    -0.000222   0.213995  1 At py                90    -0.212637   0.000907  1 At px         
   425    -0.186904   0.000216  1 At pz                82    -0.000211  -0.186901  1 At py         
    81     0.186877  -0.000231  1 At px               430    -0.174452   0.001940  1 At py         

 Vector    5  Occ=1.000000D+00  E=-4.805689D+00
              MO Center=  2.3D-13,  2.7D-12, -1.3D-11, r^2= 1.7D-02
  Bfn.         Coefficient        Function           Bfn.         Coefficient        Function  
  ----     -------------------  ------------         ----     -------------------  ------------
   431     0.335329  -0.000003  1 At pz                88     0.127947  -0.288966  1 At py         
   434     0.299865  -0.000002  1 At pz                91     0.114414  -0.258400  1 At py         
   430    -0.196228  -0.044253  1 At py                89     0.029763  -0.183197  1 At pz         
   433    -0.175473  -0.039572  1 At py                92     0.026616  -0.163822  1 At pz         
    87     0.046392  -0.127946  1 At px                90     0.041483  -0.114414  1 At px         

 Vector    6  Occ=1.000000D+00  E=-4.796712D+00
              MO Center= -4.9D-11, -4.8D-11, -1.2D-10, r^2= 1.4D-01
  Bfn.         Coefficient        Function           Bfn.         Coefficient        Function  
  ----     -------------------  ------------         ----     -------------------  ------------
    87    -0.370722  -0.105870  1 At px                90    -0.332240  -0.095192  1 At px         
    88     0.106485  -0.178430  1 At py               429    -0.014605   0.192590  1 At px         
   431    -0.188546  -0.000644  1 At pz                91     0.095407  -0.160651  1 At py         
   432    -0.013135   0.172598  1 At px               434    -0.169731  -0.000410  1 At pz         
    89     0.113680  -0.089770  1 At pz               430     0.100868  -0.098877  1 At py         

 Vector    7  Occ=1.000000D+00  E=-4.796706D+00
              MO Center=  1.6D-12, -3.2D-11, -3.4D-11, r^2= 5.3D-02
  Bfn.         Coefficient        Function           Bfn.         Coefficient        Function  
  ----     -------------------  ------------         ----     -------------------  ------------
   429    -0.223662   0.314028  1 At px               432    -0.200251   0.281676  1 At px         
   430     0.194526   0.072968  1 At py                87     0.131570   0.141399  1 At px         
    89     0.146982  -0.118149  1 At pz               433     0.174779   0.065990  1 At py         
    90     0.117949   0.126692  1 At px                92     0.132423  -0.106227  1 At pz         
   431     0.144797  -0.000832  1 At pz                88    -0.140581  -0.014290  1 At py         

 Vector    8  Occ=1.000000D+00  E=-4.790262D+00
              MO Center=  2.4D-15, -5.2D-13, -1.6D-13, r^2= 2.9D-03
  Bfn.         Coefficient        Function           Bfn.         Coefficient        Function  
  ----     -------------------  ------------         ----     -------------------  ------------
    89     0.053308  -0.327855  1 At pz               430    -0.302948   0.079214  1 At py         
    92     0.048380  -0.297544  1 At pz               433    -0.274929   0.071889  1 At py         
    88     0.012083   0.198921  1 At py               431    -0.183863  -0.000001  1 At pz         
    91     0.010964   0.180525  1 At py               434    -0.166864  -0.000001  1 At pz         
   429    -0.132524   0.024935  1 At px               432    -0.120269   0.022625  1 At px         

 Vector    9  Occ=1.000000D+00  E=-1.914308D+00
              MO Center= -8.6D-12, -1.5D-11, -1.8D-11, r^2= 4.0D-02
  Bfn.         Coefficient        Function           Bfn.         Coefficient        Function  
  ----     -------------------  ------------         ----     -------------------  ------------
   529     0.415352  -0.010031  1 At dyz              535     0.356190  -0.008791  1 At dyz        
   527     0.128081  -0.224484  1 At dxz              187     0.000812   0.252051  1 At dyz        
   184    -0.180735   0.136805  1 At dxy              533     0.110107  -0.191448  1 At dxz        
   188     0.038517  -0.215280  1 At dzz              193     0.000272   0.216168  1 At dyz        
   186     0.046626   0.200104  1 At dyy              190    -0.154112   0.117531  1 At dxy        

 Vector   10  Occ=1.000000D+00  E=-1.912844D+00
              MO Center= -5.4D-12, -4.2D-12, -2.2D-11, r^2= 5.1D-02
  Bfn.         Coefficient        Function           Bfn.         Coefficient        Function  
  ----     -------------------  ------------         ----     -------------------  ------------
   187     0.088947  -0.409069  1 At dyz              193     0.076422  -0.351100  1 At dyz        
   185     0.238298  -0.088517  1 At dxz              529     0.250194   0.044645  1 At dyz        
   526     0.169610  -0.146455  1 At dxy              530    -0.220350  -0.003111  1 At dzz        
   535     0.214783   0.038147  1 At dyz              191     0.204126  -0.076168  1 At dxz        
   528     0.189708   0.081127  1 At dyy              199     0.041498  -0.188810  1 At dyz        

 Vector   11  Occ=1.000000D+00  E=-1.906771D+00
              MO Center= -3.0D-12, -2.1D-11, -3.0D-11, r^2= 1.2D-01
  Bfn.         Coefficient        Function           Bfn.         Coefficient        Function  
  ----     -------------------  ------------         ----     -------------------  ------------
   526     0.146074  -0.357644  1 At dxy              185    -0.368492  -0.080908  1 At dxz        
   532     0.125026  -0.306407  1 At dxy              191    -0.315760  -0.069079  1 At dxz        
   525    -0.239080  -0.078288  1 At dxx              531    -0.204353  -0.067233  1 At dxx        
   527     0.084995  -0.173110  1 At dxz              184     0.184993  -0.048007  1 At dxy        
   538     0.066024  -0.163975  1 At dxy              197    -0.169193  -0.037629  1 At dxz        

 Vector   12  Occ=1.000000D+00  E=-1.906768D+00
              MO Center= -1.5D-11, -1.9D-11, -3.7D-11, r^2= 1.3D-01
  Bfn.         Coefficient        Function           Bfn.         Coefficient        Function  
  ----     -------------------  ------------         ----     -------------------  ------------
   184     0.348296   0.173548  1 At dxy              527     0.229886  -0.298213  1 At dxz        
   190     0.298049   0.148898  1 At dxy              533     0.196944  -0.255564  1 At dxz        
   183    -0.129496   0.214957  1 At dxx              189    -0.110516   0.183996  1 At dxx        
   185     0.177056   0.075551  1 At dxz              526    -0.171081   0.083777  1 At dxy        
   196     0.160066   0.079618  1 At dxy              539     0.106124  -0.136379  1 At dxz        

 Vector   13  Occ=1.000000D+00  E=-1.759083D+00
              MO Center= -5.1D-13, -3.5D-12, -4.7D-12, r^2= 4.1D-02
  Bfn.         Coefficient        Function           Bfn.         Coefficient        Function  
  ----     -------------------  ------------         ----     -------------------  ------------
   187    -0.168076   0.333586  1 At dyz              193    -0.158086   0.313534  1 At dyz        
   529     0.278858   0.040078  1 At dyz              535     0.261826   0.037468  1 At dyz        
   530    -0.249212  -0.001453  1 At dzz              185    -0.168183   0.163233  1 At dxz        
   536    -0.233438  -0.001466  1 At dzz              191    -0.157343   0.153233  1 At dxz        
   199    -0.089099   0.176684  1 At dyz              188     0.014602   0.160829  1 At dzz        

 Vector   14  Occ=1.000000D+00  E=-1.759069D+00
              MO Center=  5.0D-13, -3.2D-13, -3.1D-12, r^2= 1.8D-02
  Bfn.         Coefficient        Function           Bfn.         Coefficient        Function  
  ----     -------------------  ------------         ----     -------------------  ------------
   529    -0.314199   0.271914  1 At dyz              535    -0.295155   0.255324  1 At dyz        
   184     0.122412   0.227580  1 At dxy              187     0.013098   0.249324  1 At dyz        
   190     0.114483   0.212999  1 At dxy              193     0.012515   0.234428  1 At dyz        
   541    -0.166683   0.144144  1 At dyz              186     0.019331   0.217717  1 At dyy        
   192     0.018245   0.203886  1 At dyy              527    -0.170997  -0.024920  1 At dxz        

 Vector   15  Occ=1.000000D+00  E=-1.757103D+00
              MO Center=  1.7D-12, -3.2D-12, -5.6D-12, r^2= 4.3D-02
  Bfn.         Coefficient        Function           Bfn.         Coefficient        Function  
  ----     -------------------  ------------         ----     -------------------  ------------
   527     0.333698  -0.212399  1 At dxz              533     0.311563  -0.198882  1 At dxz        
   184     0.096780  -0.320941  1 At dxy              190     0.090905  -0.299807  1 At dxy        
   526    -0.227185   0.035829  1 At dxy              532    -0.212180   0.033424  1 At dxy        
   539     0.177787  -0.113299  1 At dxz              187     0.132095   0.161243  1 At dyz        
   193     0.124170   0.150726  1 At dyz              196     0.051698  -0.171010  1 At dxy        

 Vector   16  Occ=1.000000D+00  E=-1.750706D+00
              MO Center= -1.2D-11, -5.8D-12, -1.8D-11, r^2= 1.0D-01
  Bfn.         Coefficient        Function           Bfn.         Coefficient        Function  
  ----     -------------------  ------------         ----     -------------------  ------------
   527    -0.071318  -0.269510  1 At dxz              183    -0.031904  -0.266426  1 At dxx        
   533    -0.066703  -0.253433  1 At dxz              184     0.254979   0.023803  1 At dxy        
   189    -0.029705  -0.249709  1 At dxx              190     0.239037   0.021668  1 At dxy        
   185     0.179199   0.129234  1 At dxz              191     0.168145   0.121239  1 At dxz        
   526     0.206435   0.013794  1 At dxy              188     0.068686   0.187192  1 At dzz        

 Vector   17  Occ=1.000000D+00  E=-1.750697D+00
              MO Center= -9.0D-12, -6.5D-12, -1.4D-11, r^2= 5.9D-02
  Bfn.         Coefficient        Function           Bfn.         Coefficient        Function  
  ----     -------------------  ------------         ----     -------------------  ------------
   526     0.060758   0.340016  1 At dxy              532     0.057228   0.319471  1 At dxy        
   525    -0.240745  -0.074263  1 At dxx              531    -0.225556  -0.069271  1 At dxx        
   185     0.136800   0.191486  1 At dxz              527     0.074250   0.208821  1 At dxz        
   191     0.127938   0.180159  1 At dxz              184     0.026598  -0.216614  1 At dxy        
   533     0.069514   0.196001  1 At dxz              190     0.024866  -0.203366  1 At dxy        

 Vector   18  Occ=1.000000D+00  E=-1.750153D+00
              MO Center= -1.7D-11, -3.3D-11, -3.1D-11, r^2= 1.7D-01
  Bfn.         Coefficient        Function           Bfn.         Coefficient        Function  
  ----     -------------------  ------------         ----     -------------------  ------------
   185    -0.397659  -0.044215  1 At dxz              191    -0.374250  -0.041894  1 At dxz        
   526     0.224995   0.253602  1 At dxy              532     0.211975   0.238524  1 At dxy        
   184     0.224255  -0.065607  1 At dxy              190     0.210998  -0.061744  1 At dxy        
   197    -0.207301  -0.024350  1 At dxz              529     0.039260  -0.199671  1 At dyz        
   535     0.037297  -0.188131  1 At dyz              527     0.026561   0.175329  1 At dxz        

 Vector   19  Occ=1.000000D+00  E=-9.345211D-01
              MO Center= -9.2D-13, -1.3D-12,  2.5D-13, r^2= 1.6D-04
  Bfn.         Coefficient        Function           Bfn.         Coefficient        Function  
  ----     -------------------  ------------         ----     -------------------  ------------
   367    -0.786124  -0.008477  1 At s                370     0.713555   0.007695  1 At s          
   369     0.619681   0.006683  1 At s                372    -0.405618  -0.004374  1 At s          
    25     0.001976   0.404815  1 At s                 28    -0.001793  -0.367435  1 At s          
   373    -0.350434  -0.003779  1 At s                 27    -0.001557  -0.319101  1 At s          
    30     0.001019   0.208891  1 At s                368    -0.197959  -0.002135  1 At s          

 Vector   20  Occ=1.000000D+00  E=-9.343080D-01
              MO Center=  5.8D-12, -3.8D-12, -3.5D-12, r^2= 6.3D-04
  Bfn.         Coefficient        Function           Bfn.         Coefficient        Function  
  ----     -------------------  ------------         ----     -------------------  ------------
    25     0.018924   0.786007  1 At s                 28    -0.017177  -0.713432  1 At s          
    27    -0.014917  -0.619580  1 At s                 30     0.009765   0.405591  1 At s          
   367     0.404834  -0.003404  1 At s                370    -0.367465   0.003090  1 At s          
    31     0.008435   0.350345  1 At s                369    -0.319120   0.002683  1 At s          
   372     0.208883  -0.001756  1 At s                 26     0.004766   0.197937  1 At s          

 Vector   21  Occ=1.000000D+00  E=-4.638370D-01
              MO Center=  3.9D-11, -1.6D-11, -4.7D-11, r^2= 1.2D-01
  Bfn.         Coefficient        Function           Bfn.         Coefficient        Function  
  ----     -------------------  ------------         ----     -------------------  ------------
    98    -0.001198  -0.269867  1 At pz               439     0.267670  -0.004468  1 At py         
   438     0.008165  -0.252507  1 At px                95    -0.000506  -0.196635  1 At pz         
   436     0.195428  -0.002302  1 At py               435     0.004640  -0.187101  1 At px         
   101    -0.001014  -0.180185  1 At pz               442     0.178488  -0.003540  1 At py         
   441     0.006216  -0.166778  1 At px                89     0.000274   0.153431  1 At pz         

 Vector   22  Occ=1.000000D+00  E=-4.637615D-01
              MO Center=  1.2D-10, -6.7D-11, -1.5D-10, r^2= 4.3D-01
  Bfn.         Coefficient        Function           Bfn.         Coefficient        Function  
  ----     -------------------  ------------         ----     -------------------  ------------
   440    -0.270002   0.000157  1 At pz                97     0.003090  -0.267721  1 At py         
    96     0.252315  -0.009416  1 At px               437    -0.196772   0.000482  1 At pz         
    94     0.001301  -0.195511  1 At py                93     0.187038  -0.005572  1 At px         
   443    -0.180264  -0.000110  1 At pz               100     0.002618  -0.178503  1 At py         
    99     0.166606  -0.007039  1 At px               431     0.153454  -0.000497  1 At pz         

 Vector   23  Occ=1.000000D+00  E=-3.673538D-01
              MO Center=  2.8D-11,  7.9D-11, -2.0D-11, r^2= 1.5D-01
  Bfn.         Coefficient        Function           Bfn.         Coefficient        Function  
  ----     -------------------  ------------         ----     -------------------  ------------
   437     0.380004   0.000010  1 At pz               440     0.362777   0.000007  1 At pz         
    94     0.145162  -0.327922  1 At py                97     0.138583  -0.313062  1 At py         
   436    -0.222604  -0.050234  1 At py               439    -0.212516  -0.047961  1 At py         
    95     0.033708  -0.207655  1 At pz                98     0.032181  -0.198240  1 At pz         
   446     0.199208   0.000007  1 At pz               443     0.193716   0.000004  1 At pz         

 Vector   24  Occ=1.000000D+00  E=-3.286518D-01
              MO Center= -3.1D-10, -1.7D-10, -4.0D-10, r^2= 1.3D+00
  Bfn.         Coefficient        Function           Bfn.         Coefficient        Function  
  ----     -------------------  ------------         ----     -------------------  ------------
    93     0.567696   0.144160  1 At px                96     0.448692   0.113352  1 At px         
   435     0.000912  -0.307521  1 At px                94    -0.154966   0.258953  1 At py         
   326    -0.279617  -0.074149  1 At fxyy             323    -0.274530  -0.070339  1 At fxxx       
   328    -0.271579  -0.069108  1 At fxzz             437     0.274254   0.001915  1 At pz         
   102     0.259945   0.066735  1 At px               438     0.000650  -0.243076  1 At px         

 Vector   25  Occ=1.000000D+00  E=-3.286294D-01
              MO Center=  4.6D-11, -1.5D-10, -9.2D-11, r^2= 4.6D-01
  Bfn.         Coefficient        Function           Bfn.         Coefficient        Function  
  ----     -------------------  ------------         ----     -------------------  ------------
   435    -0.330386   0.483647  1 At px               438    -0.261483   0.381771  1 At px         
    93     0.204092   0.230052  1 At px               436     0.287602   0.091916  1 At py         
   670     0.162494  -0.241786  1 At fxzz             665     0.158540  -0.233427  1 At fxxx       
   668     0.158672  -0.233099  1 At fxyy              95     0.204602  -0.182900  1 At pz         
   444    -0.150806   0.221991  1 At px                96     0.161243   0.181865  1 At px         

 Vector   26  Occ=0.000000D+00  E=-2.182860D-02
              MO Center= -1.8D-11, -2.3D-11, -7.1D-11, r^2= 3.6D-02
  Bfn.         Coefficient        Function           Bfn.         Coefficient        Function  
  ----     -------------------  ------------         ----     -------------------  ------------
    95     0.328825  -2.025973  1 At pz               436    -1.870412   0.489494  1 At py         
    92     0.199580  -1.229651  1 At pz                94     0.074976   1.228494  1 At py         
   433    -1.135228   0.297097  1 At py               437    -1.136003   0.000067  1 At pz         
   325    -0.172375   1.062140  1 At fxxz             332    -0.172184   1.060876  1 At fzzz       
   330    -0.172198   1.060832  1 At fyyz             666     0.980274  -0.256573  1 At fxxy       

 Vector   27  Occ=0.000000D+00  E= 8.592868D-02
              MO Center= -6.8D-12, -4.4D-12,  5.7D-12, r^2= 4.6D-04
  Bfn.         Coefficient        Function           Bfn.         Coefficient        Function  
  ----     -------------------  ------------         ----     -------------------  ------------
   373   -82.246071   1.022501  1 At s                372   -67.326303   0.837014  1 At s          
    31     0.551528  42.910004  1 At s                 30     0.451481  35.125953  1 At s          
   548    25.946377  -0.323311  1 At dzz              546    25.926912  -0.321459  1 At dyy        
   543    25.918544  -0.322354  1 At dxx              537    25.340746  -0.315022  1 At dxx        
   540    25.336237  -0.315322  1 At dyy              542    25.328087  -0.314566  1 At dzz        

 Vector   28  Occ=0.000000D+00  E= 8.594878D-02
              MO Center= -1.4D-11,  5.0D-12,  2.3D-12, r^2= 1.3D-03
  Bfn.         Coefficient        Function           Bfn.         Coefficient        Function  
  ----     -------------------  ------------         ----     -------------------  ------------
    31     1.091364 -82.255465  1 At s                 30     0.893388 -67.334001  1 At s          
   373   -42.914858  -0.587441  1 At s                372   -35.129939  -0.480875  1 At s          
   204    -0.345197  25.947220  1 At dyy              206    -0.343314  25.929492  1 At dzz        
   201    -0.343746  25.923853  1 At dxx              195    -0.336368  25.342580  1 At dxx        
   200    -0.336489  25.339157  1 At dzz              198    -0.335691  25.331830  1 At dyy        

 Vector   29  Occ=0.000000D+00  E= 1.850776D-01
              MO Center=  2.1D-10, -1.6D-11, -1.4D-10, r^2= 5.3D-01
  Bfn.         Coefficient        Function           Bfn.         Coefficient        Function  
  ----     -------------------  ------------         ----     -------------------  ------------
    95    -0.032731 -10.614768  1 At pz               436    10.376691  -0.386460  1 At py         
   435     0.947453  -8.719606  1 At px                92    -0.021709  -7.115349  1 At pz         
   433     6.956047  -0.258407  1 At py               432     0.634268  -5.847077  1 At px         
    94    -0.778224   5.790529  1 At py               325     0.016903   5.661844  1 At fxxz       
   332     0.017088   5.661643  1 At fzzz             330     0.017169   5.661627  1 At fyyz       

 Vector   30  Occ=0.000000D+00  E= 1.850840D-01
              MO Center=  4.9D-10, -1.7D-10, -4.3D-10, r^2= 1.7D+00
  Bfn.         Coefficient        Function           Bfn.         Coefficient        Function  
  ----     -------------------  ------------         ----     -------------------  ------------
   437   -10.618662   0.026570  1 At pz                94     0.326378 -10.378772  1 At py         
    93     8.710510  -0.994174  1 At px               434    -7.117984   0.018061  1 At pz         
    91     0.218156  -6.957417  1 At py                90     5.841004  -0.665603  1 At px         
   436     5.798978  -0.811118  1 At py               667     5.664242  -0.014470  1 At fxxz       
   674     5.663634  -0.014575  1 At fzzz             672     5.663629  -0.014640  1 At fyyz       

 Vector   31  Occ=0.000000D+00  E= 2.066022D-01
              MO Center=  1.6D-10,  4.6D-10,  3.5D-11, r^2= 5.5D-01
  Bfn.         Coefficient        Function           Bfn.         Coefficient        Function  
  ----     -------------------  ------------         ----     -------------------  ------------
   437   -13.125956   0.000155  1 At pz                94    -5.017834  11.337338  1 At py         
   434    -8.781365   0.000093  1 At pz                91    -3.356974   7.584815  1 At py         
   436     7.694561   1.736915  1 At py                95    -1.164277   7.173307  1 At pz         
   667     6.979668  -0.000042  1 At fxxz             674     6.977438  -0.000082  1 At fzzz       
   672     6.977364  -0.000124  1 At fyyz             324     2.668038  -6.028109  1 At fxxy       

 Vector   32  Occ=0.000000D+00  E= 2.155384D-01
              MO Center= -1.2D-09,  1.2D-11, -4.1D-10, r^2= 5.0D+00
  Bfn.         Coefficient        Function           Bfn.         Coefficient        Function  
  ----     -------------------  ------------         ----     -------------------  ------------
    93    15.814405   3.036191  1 At px                90    10.581421   2.030203  1 At px         
   328    -8.410546  -1.613707  1 At fxzz             323    -8.410237  -1.613616  1 At fxxx       
   326    -8.408303  -1.612348  1 At fxyy             435    -0.669578  -8.424514  1 At px         
    94    -4.129968   6.303094  1 At py               316    -6.658811  -1.277265  1 At fxyy       
   313    -6.657826  -1.276625  1 At fxxx             318    -6.657719  -1.276589  1 At fxzz       

 Vector   33  Occ=0.000000D+00  E= 2.155411D-01
              MO Center=  3.9D-10, -5.0D-10,  2.3D-10, r^2= 1.4D+00
  Bfn.         Coefficient        Function           Bfn.         Coefficient        Function  
  ----     -------------------  ------------         ----     -------------------  ------------
   435    -9.792366  12.782156  1 At px               432    -6.552933   8.551561  1 At px         
   665     5.208602  -6.797126  1 At fxxx             668     5.208426  -6.796671  1 At fxyy       
   670     5.207133  -6.794339  1 At fxzz              93     5.101319   6.737264  1 At px         
   436     7.276776   1.964997  1 At py               660     4.124240  -5.381335  1 At fxzz       
   658     4.123603  -5.380190  1 At fxyy             655     4.123498  -5.379931  1 At fxxx       

 Vector   34  Occ=0.000000D+00  E= 2.356159D-01
              MO Center=  2.6D-11,  2.1D-11,  9.4D-11, r^2= 8.5D-02
  Bfn.         Coefficient        Function           Bfn.         Coefficient        Function  
  ----     -------------------  ------------         ----     -------------------  ------------
    95    -2.237255  13.780772  1 At pz               436    12.732131  -3.330424  1 At py         
    92    -1.496569   9.218270  1 At pz               433     8.516838  -2.227807  1 At py         
    94    -0.511030  -8.361148  1 At py               437     7.728021   0.000265  1 At pz         
   330     1.189179  -7.324897  1 At fyyz             332     1.189175  -7.324893  1 At fzzz       
   325     1.189150  -7.324816  1 At fxxz             671    -6.767522   1.770227  1 At fyyy       

 Vector   35  Occ=0.000000D+00  E= 2.961761D-01
              MO Center=  1.0D-10,  7.9D-11,  2.1D-10, r^2= 8.7D-01
  Bfn.         Coefficient        Function           Bfn.         Coefficient        Function  
  ----     -------------------  ------------         ----     -------------------  ------------
   553    -1.220399  -0.540913  1 At dyz              211     0.728996  -0.486139  1 At dyz        
   212    -0.437823   0.625798  1 At dzz              547     0.633388   0.278801  1 At dyz        
   210     0.281108  -0.558796  1 At dyy              551    -0.592002  -0.072257  1 At dxz        
   208     0.465687  -0.331392  1 At dxy              205    -0.380911   0.249910  1 At dyz        
   552     0.384968   0.210400  1 At dyy              541    -0.386164  -0.171814  1 At dyz        

 Vector   36  Occ=0.000000D+00  E= 2.962032D-01
              MO Center=  2.6D-11,  3.0D-11,  7.6D-11, r^2= 3.2D-01
  Bfn.         Coefficient        Function           Bfn.         Coefficient        Function  
  ----     -------------------  ------------         ----     -------------------  ------------
   211    -0.574546   1.217330  1 At dyz              553    -0.920051   0.186692  1 At dyz        
   554     0.742292   0.196525  1 At dzz              205     0.299890  -0.631691  1 At dyz        
   552    -0.586770  -0.176899  1 At dyy              550    -0.583778  -0.087151  1 At dxy        
   209    -0.223783   0.523118  1 At dxz              547     0.479046  -0.100390  1 At dyz        
   210     0.171819  -0.389891  1 At dyy              199    -0.181068   0.385233  1 At dyz        

 Vector   37  Occ=0.000000D+00  E= 2.975179D-01
              MO Center=  3.7D-11,  2.1D-10,  6.3D-11, r^2= 1.3D+00
  Bfn.         Coefficient        Function           Bfn.         Coefficient        Function  
  ----     -------------------  ------------         ----     -------------------  ------------
   551    -1.172411  -0.739624  1 At dxz              208    -1.018174   0.511449  1 At dxy        
   550     0.573054   0.612563  1 At dxy              545     0.618427   0.385343  1 At dxz        
   209    -0.422167   0.487751  1 At dxz              202     0.536992  -0.265328  1 At dxy        
   207    -0.455502   0.326781  1 At dxx              211     0.367685  -0.411953  1 At dyz        
   544    -0.300606  -0.321571  1 At dxy              539    -0.362170  -0.229920  1 At dxz        

 Vector   38  Occ=0.000000D+00  E= 2.991921D-01
              MO Center=  6.7D-12,  9.8D-12,  7.8D-12, r^2= 5.3D-02
  Bfn.         Coefficient        Function           Bfn.         Coefficient        Function  
  ----     -------------------  ------------         ----     -------------------  ------------
   373   -14.743264   2.578529  1 At s                372   -12.105990   2.117283  1 At s          
    31    -0.607528   7.157818  1 At s                 30    -0.498857   5.877427  1 At s          
   543     5.033341  -0.873480  1 At dxx              542     4.739382  -0.820823  1 At dzz        
   546     4.583431  -0.796416  1 At dyy              540     4.478066  -0.783156  1 At dyy        
   537     4.204364  -0.743433  1 At dxx              548     4.131424  -0.734601  1 At dzz        

 Vector   39  Occ=0.000000D+00  E= 2.992362D-01
              MO Center= -4.6D-11,  4.1D-11, -1.7D-11, r^2= 4.0D-01
  Bfn.         Coefficient        Function           Bfn.         Coefficient        Function  
  ----     -------------------  ------------         ----     -------------------  ------------
    31    -5.853404  13.730087  1 At s                 30    -4.806362  11.274091  1 At s          
   373     7.089551   1.030633  1 At s                372     5.821394   0.846279  1 At s          
   201     1.979407  -4.634853  1 At dxx              198     1.864316  -4.390209  1 At dyy        
   206     1.814006  -4.279845  1 At dzz              200     1.780273  -4.164353  1 At dzz        
   195     1.684162  -3.944869  1 At dxx              204     1.664926  -3.888706  1 At dyy        

 Vector   40  Occ=0.000000D+00  E= 3.042273D-01
              MO Center= -4.6D-11, -5.6D-11, -2.1D-12, r^2= 9.4D-01
  Bfn.         Coefficient        Function           Bfn.         Coefficient        Function  
  ----     -------------------  ------------         ----     -------------------  ------------
   208     0.809918   0.801890  1 At dxy              209    -0.739211   0.828176  1 At dxz        
   551     0.660674  -0.816270  1 At dxz              550    -0.862918  -0.108038  1 At dxy        
   202    -0.422567  -0.428004  1 At dxy              203     0.394612  -0.440848  1 At dxz        
   373     0.230941  -0.529798  1 At s                545    -0.347287   0.426728  1 At dxz        
   207     0.073288   0.515690  1 At dxx               31     0.383377  -0.327286  1 At s          

 Vector   41  Occ=0.000000D+00  E= 3.042314D-01
              MO Center= -5.3D-11, -1.0D-10,  7.4D-11, r^2= 1.1D+00
  Bfn.         Coefficient        Function           Bfn.         Coefficient        Function  
  ----     -------------------  ------------         ----     -------------------  ------------
   550     0.429480  -1.058819  1 At dxy              551    -1.011896  -0.440657  1 At dxz        
   209    -0.939324  -0.471844  1 At dxz              208     0.760171  -0.441139  1 At dxy        
   544    -0.220578   0.561305  1 At dxy              545     0.539638   0.233965  1 At dxz        
   373     0.564847   0.105924  1 At s                 31    -0.368542  -0.415778  1 At s          
   203     0.492968   0.245578  1 At dxz              549    -0.145263  -0.495368  1 At dxx        

 Vector   42  Occ=0.000000D+00  E= 3.284800D-01
              MO Center= -1.0D-11, -1.1D-10,  7.0D-11, r^2= 1.0D+00
  Bfn.         Coefficient        Function           Bfn.         Coefficient        Function  
  ----     -------------------  ------------         ----     -------------------  ------------
   373    15.211683   3.129036  1 At s                372    12.522186   2.575781  1 At s          
    31     8.132919   0.536266  1 At s                 30     6.695010   0.441506  1 At s          
   546    -5.054135  -1.186300  1 At dyy              537    -4.802332  -0.986829  1 At dxx        
   548    -4.728645  -0.820379  1 At dzz              542    -4.611532  -1.034214  1 At dzz        
   540    -4.428102  -0.826247  1 At dyy              543    -4.406510  -0.912035  1 At dxx        

 Vector   43  Occ=0.000000D+00  E= 3.284922D-01
              MO Center= -4.3D-11, -2.0D-10,  1.2D-10, r^2= 1.1D+00
  Bfn.         Coefficient        Function           Bfn.         Coefficient        Function  
  ----     -------------------  ------------         ----     -------------------  ------------
    31    11.399954 -10.530489  1 At s                 30     9.384434  -8.668728  1 At s          
   373    -6.675738   4.688517  1 At s                372    -5.495475   3.859530  1 At s          
   206    -3.755481   3.671806  1 At dzz              195    -3.630322   3.352737  1 At dxx        
   204    -3.633562   3.147241  1 At dyy              198    -3.406380   3.262215  1 At dyy        
   200    -3.336754   2.967326  1 At dzz              201    -3.244731   3.003721  1 At dxx        

 Vector   44  Occ=0.000000D+00  E= 3.319207D-01
              MO Center= -7.4D-11, -6.6D-11,  1.1D-10, r^2= 1.0D+00
  Bfn.         Coefficient        Function           Bfn.         Coefficient        Function  
  ----     -------------------  ------------         ----     -------------------  ------------
   209     1.085891  -0.943010  1 At dxz              550    -1.077306  -0.507204  1 At dxy        
   208    -0.544112   0.702128  1 At dxy              203    -0.622158   0.534649  1 At dxz        
   551    -0.495681  -0.464065  1 At dxz              544     0.616062   0.285420  1 At dxy        
   549    -0.540055  -0.247022  1 At dxx              553     0.471332   0.268947  1 At dyz        
   202     0.309829  -0.399993  1 At dxy              197     0.354332  -0.309776  1 At dxz        

 Vector   45  Occ=0.000000D+00  E= 3.911077D-01
              MO Center= -7.2D-12, -1.5D-12,  7.9D-13, r^2= 5.8D-03
  Bfn.         Coefficient        Function           Bfn.         Coefficient        Function  
  ----     -------------------  ------------         ----     -------------------  ------------
   373   195.209449  -4.523733  1 At s                372   160.957197  -3.729977  1 At s          
    31    -4.598695-102.134953  1 At s                 30    -3.791794 -84.213937  1 At s          
   548   -60.663027   1.410353  1 At dzz              543   -60.608482   1.404604  1 At dxx        
   546   -60.566055   1.398899  1 At dyy              540   -59.263655   1.376328  1 At dyy        
   537   -59.243417   1.372651  1 At dxx              542   -59.204206   1.369252  1 At dzz        

 Vector   46  Occ=0.000000D+00  E= 3.911295D-01
              MO Center= -8.7D-13,  2.4D-13,  3.5D-13, r^2= 7.9D-04
  Bfn.         Coefficient        Function           Bfn.         Coefficient        Function  
  ----     -------------------  ------------         ----     -------------------  ------------
    31    -0.521370 195.269931  1 At s                 30    -0.429892 161.007257  1 At s          
   373   102.212217   2.504257  1 At s                372    84.277738   2.064848  1 At s          
   204     0.167829 -60.675903  1 At dyy              201     0.160190 -60.639762  1 At dxx        
   206     0.157637 -60.578197  1 At dzz              200     0.160850 -59.285729  1 At dzz        
   195     0.159066 -59.254157  1 At dxx              198     0.154724 -59.226509  1 At dyy        

 Vector   47  Occ=0.000000D+00  E= 6.977201D-01
              MO Center=  6.9D-11,  1.1D-11,  3.2D-12, r^2= 4.0D-01
  Bfn.         Coefficient        Function           Bfn.         Coefficient        Function  
  ----     -------------------  ------------         ----     -------------------  ------------
    95    -0.024949  26.672372  1 At pz               436   -26.321472   0.498429  1 At py         
   435    -1.508525  23.852873  1 At px                92    -0.017039  17.011210  1 At pz         
   433   -16.788716   0.314896  1 At py               432    -0.958144  15.222806  1 At px         
    94     1.199542 -14.553711  1 At py               437   -14.296009  -0.115436  1 At pz         
   325     0.013268 -13.988498  1 At fxxz             330     0.012593 -13.987941  1 At fyyz       

 Vector   48  Occ=0.000000D+00  E= 6.977327D-01
              MO Center=  2.0D-10,  4.3D-12,  4.8D-11, r^2= 1.3D+00
  Bfn.         Coefficient        Function           Bfn.         Coefficient        Function  
  ----     -------------------  ------------         ----     -------------------  ------------
   437   -26.676940   0.055173  1 At pz                94     0.467096 -26.322680  1 At py         
    93    23.846203  -1.534191  1 At px               434   -17.014204   0.036362  1 At pz         
    91     0.294958 -16.789425  1 At py                90    15.218610  -0.974527  1 At px         
   436    14.565584  -1.216369  1 At py                95    -0.132801 -14.284251  1 At pz         
   667    13.991149  -0.028573  1 At fxxz             674    13.990297  -0.028659  1 At fzzz       

 Vector   49  Occ=0.000000D+00  E= 7.653024D-01
              MO Center=  3.9D-11,  1.2D-10, -4.0D-12, r^2= 3.6D-01
  Bfn.         Coefficient        Function           Bfn.         Coefficient        Function  
  ----     -------------------  ------------         ----     -------------------  ------------
   437   -33.148222   0.002493  1 At pz                94   -12.656488  28.597259  1 At py         
   434   -21.081679   0.001554  1 At pz               436    19.414014   4.379045  1 At py         
    91    -8.049300  18.187426  1 At py                95    -2.939215  18.113053  1 At pz         
   672    17.410667  -0.001268  1 At fyyz             674    17.410602  -0.001302  1 At fzzz       
   667    17.408622  -0.001327  1 At fxxz             329     6.647579 -15.020154  1 At fyyy       

 Vector   50  Occ=0.000000D+00  E= 7.787649D-01
              MO Center= -4.9D-10, -1.9D-10, -2.9D-10, r^2= 3.2D+00
  Bfn.         Coefficient        Function           Bfn.         Coefficient        Function  
  ----     -------------------  ------------         ----     -------------------  ------------
    93   -38.454975  -9.410543  1 At px                90   -24.458595  -5.982617  1 At px         
   326    20.193957   4.943519  1 At fxyy             323    20.192272   4.942124  1 At fxxx       
   328    20.191843   4.941978  1 At fxzz             435     0.489554  19.849510  1 At px         
    94    10.707738 -16.431679  1 At py               437   -17.716606  -0.253898  1 At pz         
    96   -16.194823  -3.968340  1 At px               318    15.762636   3.857246  1 At fxzz       

 Vector   51  Occ=0.000000D+00  E= 7.787683D-01
              MO Center=  7.5D-11, -2.3D-10, -8.1D-12, r^2= 9.7D-01
  Bfn.         Coefficient        Function           Bfn.         Coefficient        Function  
  ----     -------------------  ------------         ----     -------------------  ------------
   435   -22.955732  32.252190  1 At px               432   -14.602379  20.511315  1 At px         
   670    12.054267 -16.938269  1 At fxzz             668    12.053165 -16.935953  1 At fxyy       
   665    12.053073 -16.935571  1 At fxxx              93    12.601201  15.343809  1 At px         
   436    18.844134   5.443640  1 At py                95    13.248192 -11.770723  1 At pz         
   438    -9.664131  13.586546  1 At px               655     9.409677 -13.220091  1 At fxxx       

 Vector   52  Occ=0.000000D+00  E= 7.929736D-01
              MO Center=  2.8D-12,  3.1D-12,  2.3D-11, r^2= 5.9D-02
  Bfn.         Coefficient        Function           Bfn.         Coefficient        Function  
  ----     -------------------  ------------         ----     -------------------  ------------
    95    -5.381711  33.121785  1 At pz               436    30.602637  -8.000852  1 At py         
    92    -3.417828  21.034765  1 At pz                94    -1.225314 -20.095881  1 At py         
   433    19.435018  -5.081159  1 At py               437    18.574767   0.002533  1 At pz         
   325     2.825473 -17.389250  1 At fxxz             332     2.825442 -17.389171  1 At fzzz       
   330     2.825436 -17.389167  1 At fyyz             666   -16.066646   4.200539  1 At fxxy       

 Vector   53  Occ=0.000000D+00  E= 9.503774D-01
              MO Center=  8.4D-14,  1.5D-13,  1.7D-13, r^2= 6.8D-04
  Bfn.         Coefficient        Function           Bfn.         Coefficient        Function  
  ----     -------------------  ------------         ----     -------------------  ------------
   373  -326.232996   2.470203  1 At s                372  -299.616598   2.268660  1 At s          
    31     1.666870 168.028723  1 At s                 30     1.530885 154.319737  1 At s          
   543   105.191327  -0.789022  1 At dxx              546   105.132714  -0.808404  1 At dyy        
   542   105.088847  -0.798419  1 At dzz              540   104.997860  -0.788933  1 At dyy        
   537   104.963059  -0.798165  1 At dxx              548   104.959442  -0.789866  1 At dzz        

 Vector   54  Occ=0.000000D+00  E= 9.504026D-01
              MO Center= -2.5D-13, -1.9D-12, -4.9D-12, r^2= 3.3D-02
  Bfn.         Coefficient        Function           Bfn.         Coefficient        Function  
  ----     -------------------  ------------         ----     -------------------  ------------
    31    24.772030-325.307710  1 At s                 30    22.751146-298.769254  1 At s          
   373  -167.524909 -13.151897  1 At s                372  -153.858317 -12.078962  1 At s          
   201    -7.981506 104.872186  1 At dxx              206    -7.991468 104.837038  1 At dzz        
   198    -7.981364 104.781164  1 At dyy              200    -7.968680 104.699534  1 At dzz        
   204    -7.967704 104.681088  1 At dyy              195    -7.972923 104.676959  1 At dxx        

 Vector   55  Occ=0.000000D+00  E= 9.993450D-01
              MO Center= -1.4D-10, -3.5D-10, -6.4D-10, r^2= 4.6D-01
  Bfn.         Coefficient        Function           Bfn.         Coefficient        Function  
  ----     -------------------  ------------         ----     -------------------  ------------
   547     2.367401  -1.493284  1 At dyz              545    -0.008906  -1.720313  1 At dxz        
   205     0.858565   1.460687  1 At dyz              553    -1.349235   0.850319  1 At dyz        
   206    -0.542362  -1.418610  1 At dzz              202    -0.548422   1.403789  1 At dxy        
   204     0.930456   0.961117  1 At dyy              541    -1.111619   0.701651  1 At dyz        
   551     0.007626   0.982764  1 At dxz              211    -0.490376  -0.831531  1 At dyz        

 Vector   56  Occ=0.000000D+00  E= 1.002343D+00
              MO Center= -1.0D-10, -9.7D-11, -3.7D-10, r^2= 2.3D-01
  Bfn.         Coefficient        Function           Bfn.         Coefficient        Function  
  ----     -------------------  ------------         ----     -------------------  ------------
   205     0.614608  -2.911865  1 At dyz              547     1.838823  -0.018752  1 At dyz        
   211    -0.349232   1.655482  1 At dyz              548    -1.607366  -0.036530  1 At dzz        
   203     1.042002  -0.956785  1 At dxz              199    -0.291034   1.371599  1 At dyz        
   546     1.346798   0.323047  1 At dyy              544     1.209112  -0.545520  1 At dxy        
   553    -1.045330   0.010243  1 At dyz              204    -0.307375   0.901602  1 At dyy        

 Vector   57  Occ=0.000000D+00  E= 1.009422D+00
              MO Center= -1.4D-10, -5.0D-10, -1.2D-09, r^2= 9.1D-01
  Bfn.         Coefficient        Function           Bfn.         Coefficient        Function  
  ----     -------------------  ------------         ----     -------------------  ------------
   373   -13.086664   2.035436  1 At s                372   -12.283678   1.910545  1 At s          
    31    -0.283009   6.445619  1 At s                 30    -0.265646   6.050121  1 At s          
   548     5.359800  -0.566506  1 At dzz              537     4.958979  -0.317632  1 At dxx        
   546     4.639552  -0.024051  1 At dyy              540     4.085633  -0.963447  1 At dyy        
   371    -3.837037   0.596794  1 At s                542     3.739714  -0.707333  1 At dzz        

 Vector   58  Occ=0.000000D+00  E= 1.009448D+00
              MO Center= -1.8D-10, -7.2D-10, -1.2D-09, r^2= 1.0D+00
  Bfn.         Coefficient        Function           Bfn.         Coefficient        Function  
  ----     -------------------  ------------         ----     -------------------  ------------
    31    13.161003  -0.984212  1 At s                 30    12.353574  -0.923831  1 At s          
   373    -1.739286  -6.189312  1 At s                372    -1.632578  -5.809597  1 At s          
   204    -5.074884   1.072642  1 At dyy              195    -4.849007   0.808386  1 At dxx        
   206    -4.689522   0.605694  1 At dzz              200    -4.098353   0.186640  1 At dzz        
   198    -3.909655  -0.033547  1 At dyy               29     3.858858  -0.288575  1 At s          

 Vector   59  Occ=0.000000D+00  E= 1.031755D+00
              MO Center= -1.6D-10, -2.4D-10, -6.1D-10, r^2= 3.5D-01
  Bfn.         Coefficient        Function           Bfn.         Coefficient        Function  
  ----     -------------------  ------------         ----     -------------------  ------------
   545     2.760807  -0.850148  1 At dxz              202     1.241876  -2.033359  1 At dxy        
   544    -1.648340  -0.175906  1 At dxy              551    -1.545546   0.474392  1 At dxz        
   205     0.525059   1.353981  1 At dyz              539    -1.339715   0.413715  1 At dxz        
   208    -0.693800   1.138626  1 At dxy              203    -0.062459  -1.282275  1 At dxz        
   547    -0.469683  -1.186856  1 At dyz              196    -0.603730   0.986537  1 At dxy        

 Vector   60  Occ=0.000000D+00  E= 1.034992D+00
              MO Center= -1.8D-10, -7.1D-10, -1.5D-09, r^2= 8.7D-01
  Bfn.         Coefficient        Function           Bfn.         Coefficient        Function  
  ----     -------------------  ------------         ----     -------------------  ------------
   373    16.883440  -4.483750  1 At s                372    15.970650  -4.241313  1 At s          
    31     9.853431  -1.052953  1 At s                 30     9.320663  -0.996063  1 At s          
   548    -6.957451   1.352751  1 At dzz              537    -6.145053   1.875266  1 At dxx        
   546    -5.333773   2.414070  1 At dyy              540    -5.609063   1.005057  1 At dyy        
   371     4.989359  -1.325037  1 At s                542    -4.819014   1.521011  1 At dzz        

 Vector   61  Occ=0.000000D+00  E= 1.035000D+00
              MO Center= -1.3D-10, -5.8D-10, -1.0D-09, r^2= 7.1D-01
  Bfn.         Coefficient        Function           Bfn.         Coefficient        Function  
  ----     -------------------  ------------         ----     -------------------  ------------
    31    10.572742  13.845371  1 At s                 30    10.001107  13.096835  1 At s          
   373    -7.218006  -6.829729  1 At s                372    -6.827824  -6.460476  1 At s          
   204    -4.092149  -5.246036  1 At dyy              195    -3.637717  -5.139913  1 At dxx        
   206    -3.170958  -5.042535  1 At dzz              200    -3.595492  -4.274967  1 At dzz        
   198    -3.145216  -4.176033  1 At dyy               29     3.124463   4.091577  1 At s          

 Vector   62  Occ=0.000000D+00  E= 1.054171D+00
              MO Center= -3.6D-10, -3.4D-10, -1.0D-09, r^2= 4.7D-01
  Bfn.         Coefficient        Function           Bfn.         Coefficient        Function  
  ----     -------------------  ------------         ----     -------------------  ------------
   373     3.774266  -3.791125  1 At s                372     3.567812  -3.583615  1 At s          
   543    -1.992967   2.415081  1 At dxx               31     1.616110  -2.478582  1 At s          
    30     1.527475  -2.342956  1 At s                205    -0.649995   2.463017  1 At dyz        
   540    -1.803184   1.615957  1 At dyy              544     2.164691  -0.875062  1 At dxy        
   548    -1.621544   0.814937  1 At dzz              542    -1.042828   1.446987  1 At dzz        

 Vector   63  Occ=0.000000D+00  E= 1.054180D+00
              MO Center= -1.9D-10, -5.1D-10, -1.4D-09, r^2= 6.7D-01
  Bfn.         Coefficient        Function           Bfn.         Coefficient        Function  
  ----     -------------------  ------------         ----     -------------------  ------------
    31     2.831336   4.515429  1 At s                 30     2.676182   4.268164  1 At s          
   201    -1.542849  -3.001964  1 At dxx              373    -1.060284  -2.768892  1 At s          
   372    -1.002413  -2.617286  1 At s                200    -1.556858  -2.047081  1 At dzz        
   545    -0.482019  -1.865609  1 At dxz              204    -1.584232  -1.095969  1 At dyy        
   198    -0.601201  -1.662287  1 At dyy              547     0.157614  -1.757122  1 At dyz        

 Vector   64  Occ=0.000000D+00  E= 1.058148D+00
              MO Center= -5.2D-10, -1.0D-09, -3.1D-09, r^2= 1.5D+00
  Bfn.         Coefficient        Function           Bfn.         Coefficient        Function  
  ----     -------------------  ------------         ----     -------------------  ------------
   203    -2.996799  -0.443680  1 At dxz              544     1.181170   2.210268  1 At dxy        
   202     1.792646  -0.281414  1 At dxy              209     1.644434   0.243119  1 At dxz        
[...]

 Vector  676  Occ=0.000000D+00  E= 7.445717D+07
              MO Center=  8.9D-29, -4.4D-31, -2.3D-30, r^2= 1.2D-22
  Bfn.         Coefficient        Function           Bfn.         Coefficient        Function  
  ----     -------------------  ------------         ----     -------------------  ------------
   359    47.076024   0.000000  1 At s                360    43.043689   0.000000  1 At s          
   358    37.719097   0.000000  1 At s                361    34.535146   0.000000  1 At s          
   362    26.054054   0.000000  1 At s                356   -24.136188  -0.000000  1 At s          
   347   -22.951296  -0.000000  1 At s                459   -22.338660  -0.000000  1 At dxx        
   462   -22.338660  -0.000000  1 At dyy              464   -22.338660  -0.000000  1 At dzz        

 Vector  677  Occ=0.000000D+00  E= 1.499807D+08
              MO Center=  1.2D-17, -4.2D-19, -1.4D-17, r^2= 9.1D-10
  Bfn.         Coefficient        Function           Bfn.         Coefficient        Function  
  ----     -------------------  ------------         ----     -------------------  ------------
    17     2.159744  32.869813  1 At s                 18     1.975439  30.064808  1 At s          
    16     1.729140  26.316318  1 At s                 19     1.585242  24.126280  1 At s          
     4     1.365753  20.785815  1 At s                  5    -1.291317 -19.652951  1 At s          
    20     1.196062  18.203231  1 At s                 14    -1.107367 -16.853359  1 At s          
   117    -1.024889 -15.598107  1 At dxx              120    -1.024889 -15.598107  1 At dyy        

 Vector  678  Occ=0.000000D+00  E= 1.499807D+08
              MO Center= -9.4D-31, -1.4D-32, -2.4D-31, r^2= 1.5D-23
  Bfn.         Coefficient        Function           Bfn.         Coefficient        Function  
  ----     -------------------  ------------         ----     -------------------  ------------
   359    32.940690   0.000000  1 At s                360    30.129637   0.000000  1 At s          
   358    26.373064   0.000000  1 At s                361    24.178304   0.000000  1 At s          
   346    20.830635   0.000000  1 At s                347   -19.695329  -0.000000  1 At s          
   362    18.242483   0.000000  1 At s                356   -16.889700  -0.000000  1 At s          
   459   -15.631741  -0.000000  1 At dxx              462   -15.631741  -0.000000  1 At dyy        

 Vector  679  Occ=0.000000D+00  E= 3.148782D+08
              MO Center=  5.8D-18, -2.0D-19, -7.2D-18, r^2= 4.6D-10
  Bfn.         Coefficient        Function           Bfn.         Coefficient        Function  
  ----     -------------------  ------------         ----     -------------------  ------------
    17     1.522772  22.763477  1 At s                 18     1.393095  20.824976  1 At s          
    16     1.218636  18.217029  1 At s                  4     1.162496  17.377808  1 At s          
     3    -1.140256 -17.045358  1 At s                 19     1.118040  16.713245  1 At s          
     5    -0.924948 -13.826784  1 At s                 20     0.843606  12.610813  1 At s          
    14    -0.780801 -11.671958  1 At s                117    -0.722635 -10.802455  1 At dxx        

 Vector  680  Occ=0.000000D+00  E= 3.148782D+08
              MO Center=  1.6D-31, -7.6D-34, -2.7D-32, r^2= 1.6D-24
  Bfn.         Coefficient        Function           Bfn.         Coefficient        Function  
  ----     -------------------  ------------         ----     -------------------  ------------
   359    22.814353   0.000000  1 At s                360    20.871520   0.000000  1 At s          
   358    18.257744   0.000000  1 At s                346    17.416647   0.000000  1 At s          
   345   -17.083454  -0.000000  1 At s                361    16.750599   0.000000  1 At s          
   347   -13.857686  -0.000000  1 At s                362    12.638998   0.000000  1 At s          
   356   -11.698044  -0.000000  1 At s                459   -10.826598  -0.000000  1 At dxx        

 Vector  681  Occ=0.000000D+00  E= 8.027965D+08
              MO Center=  2.8D-18, -9.5D-20, -3.5D-18, r^2= 2.2D-10
  Bfn.         Coefficient        Function           Bfn.         Coefficient        Function  
  ----     -------------------  ------------         ----     -------------------  ------------
    17     1.067997  15.947471  1 At s                 18     0.977164  14.591146  1 At s          
     3    -0.902576 -13.477390  1 At s                 16     0.854460  12.758919  1 At s          
     4     0.795410  11.877176  1 At s                 19     0.784279  11.710958  1 At s          
     2     0.739104  11.036410  1 At s                  5    -0.615098  -9.184732  1 At s          
    20     0.591789   8.836681  1 At s                 14    -0.547631  -8.177296  1 At s          

 Vector  682  Occ=0.000000D+00  E= 8.027965D+08
              MO Center= -2.6D-33, -2.1D-34, -2.0D-33, r^2= 1.2D-25
  Bfn.         Coefficient        Function           Bfn.         Coefficient        Function  
  ----     -------------------  ------------         ----     -------------------  ------------
   359   -15.983193  -0.000000  1 At s                360   -14.623829  -0.000000  1 At s          
   345    13.507579   0.000000  1 At s                358   -12.787499  -0.000000  1 At s          
   346   -11.903781  -0.000000  1 At s                361   -11.737190  -0.000000  1 At s          
   344   -11.061131  -0.000000  1 At s                347     9.205305   0.000000  1 At s          
   362    -8.856475  -0.000000  1 At s                356     8.195612   0.000000  1 At s          

 Vector  683  Occ=0.000000D+00  E= 6.356664D+09
              MO Center= -3.9D-35, -1.1D-35, -1.7D-35, r^2= 1.1D-27
  Bfn.         Coefficient        Function           Bfn.         Coefficient        Function  
  ----     -------------------  ------------         ----     -------------------  ------------
   359   -12.903793  -0.000000  1 At s                360   -11.807181  -0.000000  1 At s          
   358   -10.322102  -0.000000  1 At s                345    10.053379   0.000000  1 At s          
   361    -9.476878  -0.000000  1 At s                344    -8.974934  -0.000000  1 At s          
   346    -8.881868  -0.000000  1 At s                362    -7.151064  -0.000000  1 At s          
   347     7.017763   0.000000  1 At s                356     6.616742   0.000000  1 At s          

 Vector  684  Occ=0.000000D+00  E= 6.356664D+09
              MO Center=  1.8D-18, -5.9D-20, -2.3D-18, r^2= 1.3D-10
  Bfn.         Coefficient        Function           Bfn.         Coefficient        Function  
  ----     -------------------  ------------         ----     -------------------  ------------
    17     0.856043  12.875367  1 At s                 18     0.783293  11.781170  1 At s          
    16     0.684773  10.299363  1 At s                  3    -0.666945 -10.031232  1 At s          
    19     0.628700   9.456001  1 At s                  2     0.595401   8.955163  1 At s          
     4     0.589227   8.862301  1 At s                 20     0.474405   7.135311  1 At s          
     5    -0.465561  -7.002304  1 At s                 14    -0.438957  -6.602166  1 At s          


   alpha - beta orbital overlaps 
   ----------------------------- 


   alpha      1      2      3      4      5      6      7      8      9     10
    beta     25     25     25     25     25     25     25     25     25     25
 overlap   0.000  0.000  0.000  0.000  0.000  0.000  0.000  0.000  0.000  0.000


   alpha     11     12     13     14     15     16     17     18     19     20
    beta     25     25     25     25     25     25     25     25     25     25
 overlap   0.000  0.000  0.000  0.000  0.001  0.001  0.002  0.004  0.007  0.015


   alpha     21     22     23     24     25     26     27     28     29     30
    beta     25     25     25     25     25     30     25     25     25     28
 overlap   0.042  0.153  0.345  0.982  2.348  0.129  2.019  1.731  0.430  0.260


   alpha     31     32     33     34     35     36     37     38     39     40
    beta     25     25     96     88     89     96     88     89     96     88
 overlap   0.305  0.085  0.000  0.000  0.000  0.000  0.000  0.000  0.000  0.000


   alpha     41     42     43     44     45     46     47     48     49     50
    beta     89     96     88     89     96     88     89     96     88     89
 overlap   0.000  0.000  0.000  0.000  0.000  0.000  0.000  0.000  0.000  0.000


   alpha     51     52     53     54     55     56     57     58     59     60
    beta     96     88     89     96     88     89     96     88     89     96
 overlap   0.000  0.000  0.000  0.000  0.000  0.000  0.000  0.000  0.000  0.000


   alpha     61     62     63     64     65     66     67     68     69     70
    beta     88     89     96     88     89     87     88     89     93     94
 overlap   0.000  0.000  0.000  0.000  0.000  0.000  0.000  0.000  0.000  0.000


   alpha     71     72     73     74     75     76     77     78     79     80
    beta     95     90     88     89     87     88     89     87     88     89
 overlap   0.000  0.001  0.001  0.001  0.006  0.006  0.006  0.083  0.082  0.081


   alpha     81     82     83     84     85     86     87     88     89     90
    beta     87     88     89     87     88     89     87     88     89     87
 overlap   0.092  0.091  0.090  0.084  0.086  0.087  0.343  0.344  0.344  0.248


   alpha     91     92     93     94     95     96     97     98     99    100
    beta     88     89     93     94     95     93     97     95     93     97
 overlap   0.257  0.262  0.459  0.195  0.181  0.393  0.180  0.171  0.181  0.097


   alpha    101    102    103    104    105    106    107    108    109    110
    beta     98     93     97     98     25    184    185     25    187     25
 overlap   0.095  0.202  0.086  0.077  0.000  0.000  0.000  0.000  0.000  0.000


   alpha    111    112    113    114    115    116    117    118    119    120
    beta     25    184    185     25    187     25     25    184    185     25
 overlap   0.000  0.000  0.000  0.000  0.000  0.000  0.001  0.000  0.000  0.001


   alpha    121    122    123    124    125    126    127    128    129    130
    beta    187     25     25    184    185     25    187     25     25    184
 overlap   0.000  0.001  0.002  0.000  0.000  0.002  0.000  0.002  0.004  0.000


   alpha    131    132    133    134    135    136    137    138    139    140
    beta    185     25    187     25     25    184    185     25    187     25
 overlap   0.000  0.004  0.000  0.004  0.008  0.000  0.000  0.008  0.000  0.008


   alpha    141    142    143    144    145    146    147    148    149    150
    beta     25    184    185     25    187     25     25    184    185     25
 overlap   0.017  0.000  0.000  0.017  0.000  0.017  0.038  0.001  0.001  0.038


   alpha    151    152    153    154    155    156    157    158    159    160
    beta    187     25     25    184    185     25    187     25     25    184
 overlap   0.001  0.038  0.093  0.002  0.002  0.093  0.002  0.093  0.250  0.006


   alpha    161    162    163    164    165    166    167    168    169    170
    beta    185     25    187     25     25    184    185     25    187     25
 overlap   0.006  0.250  0.006  0.250  0.408  0.008  0.008  0.408  0.008  0.408


   alpha    171    172    173    174    175    176    177    178    179    180
    beta     25    184    185     25    187     25     25    184    185     25
 overlap   0.220  0.077  0.077  0.220  0.077  0.219  0.205  0.023  0.023  0.205


   alpha    181    182    183    184    185    186    187    188    189    190
    beta    187     25    183    184    185    186    187    188     25    184
 overlap   0.023  0.206  0.221  0.607  0.607  0.221  0.607  0.221  0.217  0.549


   alpha    191    192    193    194    195    196    197    198    199    200
    beta    185     25    187     25     25    184    185     25    187     25
 overlap   0.550  0.217  0.550  0.222  0.139  0.304  0.303  0.140  0.304  0.137


   alpha    201    202    203    204    205    206    207    208    209    210
    beta     25    184    185     25    187     25     25    184    185     25
 overlap   0.053  0.054  0.052  0.058  0.052  0.048  0.009  0.013  0.012  0.007


   alpha    211    212    213    214    215    216    217    218    219    220
    beta     25    188     96     88     89     96     93     96     88     89
 overlap   0.017  0.004  0.000  0.000  0.000  0.000  0.000  0.000  0.000  0.000


   alpha    221    222    223    224    225    226    227    228    229    230
    beta     88     89     96     88     89     96     93     96     88     89
 overlap   0.000  0.000  0.000  0.000  0.000  0.000  0.000  0.000  0.000  0.000


   alpha    231    232    233    234    235    236    237    238    239    240
    beta     88     89     96     88     89     96     93     96     88     89
 overlap   0.000  0.000  0.001  0.001  0.001  0.001  0.000  0.001  0.001  0.001


   alpha    241    242    243    244    245    246    247    248    249    250
    beta     88     89     96     88     89     96     93     96     88     89
 overlap   0.001  0.001  0.002  0.002  0.002  0.002  0.000  0.002  0.002  0.002


   alpha    251    252    253    254    255    256    257    258    259    260
    beta     88     89     96     88     89     96     93     96     88     89
 overlap   0.002  0.002  0.004  0.004  0.004  0.004  0.000  0.004  0.004  0.004


   alpha    261    262    263    264    265    266    267    268    269    270
    beta     88     89     87     88     89     87     93     87     88     89
 overlap   0.004  0.004  0.010  0.010  0.009  0.010  0.000  0.010  0.010  0.009


   alpha    271    272    273    274    275    276    277    278    279    280
    beta     88     89     87     88     89     87     93     87     88     89
 overlap   0.010  0.009  0.023  0.022  0.021  0.023  0.000  0.023  0.022  0.021


   alpha    281    282    283    284    285    286    287    288    289    290
    beta     88     89     93     88     89     93     93     93     88     89
 overlap   0.022  0.021  0.040  0.020  0.019  0.040  0.000  0.040  0.020  0.019


   alpha    291    292    293    294    295    296    297    298    299    300
    beta     88     89     87     88     89     87     93     87     88     89
 overlap   0.020  0.019  0.075  0.077  0.078  0.075  0.001  0.075  0.077  0.078


   alpha    301    302    303    304    305    306    307    308    309    310
    beta     88     89     93     97     98     93     93     93     97     98
 overlap   0.077  0.078  0.097  0.036  0.031  0.098  0.002  0.097  0.037  0.031


   alpha    311    312    313    314    315    316    317    318    319    320
    beta     97     98     93     97     98     93     93     93     97     98
 overlap   0.036  0.031  0.162  0.063  0.053  0.161  0.003  0.163  0.061  0.052


   alpha    321    322    323    324    325    326    327    328    329    330
    beta     97     98     93     94     95     93     93     93     94     95
 overlap   0.063  0.053  0.198  0.075  0.066  0.201  0.007  0.197  0.079  0.069


   alpha    331    332    333    334    335    336    337    338    339    340
    beta     94     95     93     94     95     93     93     93     94     95

------------------------------------------------------------
EAF file 0: "/lustre/scratch/akanane/nwchem/at_ugbs_gatchina_hf.aoints.0" size=3697278976 bytes
------------------------------------------------------------
               write      read    awrite     aread      wait
               -----      ----    ------     -----      ----
     calls:     7052       470         0   3313970   3313970
   data(b): 3.70e+09  2.46e+08  0.00e+00  1.74e+12
   time(s): 0.00e+00  0.00e+00  0.00e+00  0.00e+00  0.00e+00
rate(mb/s): 0.00e+00  0.00e+00
------------------------------------------------------------

 overlap   0.075  0.066  0.133  0.056  0.045  0.124  0.020  0.135  0.046  0.038


   alpha    341    342
    beta     94     95
 overlap   0.057  0.044

     --------------------------
     Expectation value of S2:  
     --------------------------
      <S2> =      0.8180 (Exact =     0.7500)


 Parallel integral file used    7052 records with       0 large values


 Task  times  cpu:     1486.1s     wall:     1731.4s
 Summary of allocated global arrays
-----------------------------------
  No active global arrays



                         GA Statistics for process    0
                         ------------------------------

       create   destroy   get      put      acc     scatter   gather  read&inc
calls: 7818     7818     3.57e+05 3.29e+05 1.21e+06    0        0     3.58e+04 
number of processes/call 1.00e+00 1.00e+00 1.00e+00 0.00e+00 0.00e+00
bytes total:             9.12e+09 2.10e+10 1.24e+09 0.00e+00 0.00e+00 2.87e+05
bytes remote:            0.00e+00 0.00e+00 0.00e+00 0.00e+00 0.00e+00 0.00e+00
Max memory consumed for GA by this process: 287263584 bytes
MA_summarize_allocated_blocks: starting scan ...
MA_summarize_allocated_blocks: scan completed: 0 heap blocks, 0 stack blocks
MA usage statistics:

	allocation statistics:
					      heap	     stack
					      ----	     -----
	current number of blocks	         0	         0
	maximum number of blocks	        42	        23
	current total bytes		         0	         0
	maximum total bytes		    340040	  30066728
	maximum total K-bytes		       341	     30067
	maximum total M-bytes		         1	        31


                                NWChem Input Module
                                -------------------





                                     CITATION
                                     --------
                Please cite the following reference when publishing
                           results obtained with NWChem:

                 M. Valiev, E.J. Bylaska, N. Govind, K. Kowalski,
              T.P. Straatsma, H.J.J. van Dam, D. Wang, J. Nieplocha,
                        E. Apra, T.L. Windus, W.A. de Jong
                 "NWChem: a comprehensive and scalable open-source
                  solution for large scale molecular simulations"
                      Comput. Phys. Commun. 181, 1477 (2010)
                           doi:10.1016/j.cpc.2010.04.018

                                      AUTHORS
                                      -------
          E. Apra, E. J. Bylaska, W. A. de Jong, N. Govind, K. Kowalski,
       T. P. Straatsma, M. Valiev, H. J. J. van Dam, D. Wang, T. L. Windus,
        J. Hammond, J. Autschbach, K. Bhaskaran-Nair, J. Brabec, K. Lopata,
    S. A. Fischer, S. Krishnamoorthy, M. Jacquelin, W. Ma, M. Klemm, O. Villa,
      Y. Chen, V. Anisimov, F. Aquino, S. Hirata, M. T. Hackler, V. Konjkov,
            D. Mejia-Rodriguez, T. Risthaus, M. Malagoli, A. Marenich,
   A. Otero-de-la-Roza, J. Mullin, P. Nichols, R. Peverati, J. Pittner, Y. Zhao,
        P.-D. Fan, A. Fonari, M. J. Williamson, R. J. Harrison, J. R. Rehr,
      M. Dupuis, D. Silverstein, D. M. A. Smith, J. Nieplocha, V. Tipparaju,
    M. Krishnan, B. E. Van Kuiken, A. Vazquez-Mayagoitia, L. Jensen, M. Swart,
      Q. Wu, T. Van Voorhis, A. A. Auer, M. Nooijen, L. D. Crosby, E. Brown,
      G. Cisneros, G. I. Fann, H. Fruchtl, J. Garza, K. Hirao, R. A. Kendall,
      J. A. Nichols, K. Tsemekhman, K. Wolinski, J. Anchell, D. E. Bernholdt,
      P. Borowski, T. Clark, D. Clerc, H. Dachsel, M. J. O. Deegan, K. Dyall,
    D. Elwood, E. Glendening, M. Gutowski, A. C. Hess, J. Jaffe, B. G. Johnson,
     J. Ju, R. Kobayashi, R. Kutteh, Z. Lin, R. Littlefield, X. Long, B. Meng,
      T. Nakajima, S. Niu, L. Pollack, M. Rosing, K. Glaesemann, G. Sandrone,
      M. Stave, H. Taylor, G. Thomas, J. H. van Lenthe, A. T. Wong, Z. Zhang.

 Total times  cpu:     1486.1s     wall:     1735.2s
